<?xml version="1.0"?>
<VTKFile type="UnstructuredGrid" version="0.1" byte_order="LittleEndian">
  <UnstructuredGrid>
    <FieldData><DataArray type="Int32" Name="TIME_STEP" NumberOfTuples="1" format="ascii">160000</DataArray></FieldData>
    <Piece NumberOfPoints="202" NumberOfCells="100">
      <Points>
        <DataArray type="Float64" NumberOfComponents="3" format="ascii">
          6.776263578034e-21 -4.999500000000e-01 0.000000000000e+00 1.000000000000e-04 -4.999500000000e-01 0.000000000000e+00 2.000000000000e-04 -4.999500000000e-01 0.000000000000e+00 3.000000000000e-04 -4.999500000000e-01 0.000000000000e+00 4.000000000000e-04 -4.999500000000e-01 0.000000000000e+00 5.000000000000e-04 -4.999500000000e-01 0.000000000000e+00 6.000000000000e-04 -4.999500000000e-01 0.000000000000e+00 7.000000000000e-04 -4.999500000000e-01 0.000000000000e+00 8.000000000000e-04 -4.999500000000e-01 0.000000000000e+00 9.000000000000e-04 -4.999500000000e-01 0.000000000000e+00 1.000000000000e-03 -4.999500000000e-01 0.000000000000e+00 1.100000000000e-03 -4.999500000000e-01 0.000000000000e+00 1.200000000000e-03 -4.999500000000e-01 0.000000000000e+00 1.300000000000e-03 -4.999500000000e-01 0.000000000000e+00 1.400000000000e-03 -4.999500000000e-01 0.000000000000e+00 1.500000000000e-03 -4.999500000000e-01 0.000000000000e+00 1.600000000000e-03 -4.999500000000e-01 0.000000000000e+00 1.700000000000e-03 -4.999500000000e-01 0.000000000000e+00 1.800000000000e-03 -4.999500000000e-01 0.000000000000e+00 1.900000000000e-03 -4.999500000000e-01 0.000000000000e+00 2.000000000000e-03 -4.999500000000e-01 0.000000000000e+00 2.100000000000e-03 -4.999500000000e-01 0.000000000000e+00 2.200000000000e-03 -4.999500000000e-01 0.000000000000e+00 2.300000000000e-03 -4.999500000000e-01 0.000000000000e+00 2.400000000000e-03 -4.999500000000e-01 0.000000000000e+00 2.500000000000e-03 -4.999500000000e-01 0.000000000000e+00 2.600000000000e-03 -4.999500000000e-01 0.000000000000e+00 2.700000000000e-03 -4.999500000000e-01 0.000000000000e+00 2.800000000000e-03 -4.999500000000e-01 0.000000000000e+00 2.900000000000e-03 -4.999500000000e-01 0.000000000000e+00 3.000000000000e-03 -4.999500000000e-01 0.000000000000e+00 3.100000000000e-03 -4.999500000000e-01 0.000000000000e+00 3.200000000000e-03 -4.999500000000e-01 0.000000000000e+00 3.300000000000e-03 -4.999500000000e-01 0.000000000000e+00 3.400000000000e-03 -4.999500000000e-01 0.000000000000e+00 3.500000000000e-03 -4.999500000000e-01 0.000000000000e+00 3.600000000000e-03 -4.999500000000e-01 0.000000000000e+00 3.700000000000e-03 -4.999500000000e-01 0.000000000000e+00 3.800000000000e-03 -4.999500000000e-01 0.000000000000e+00 3.900000000000e-03 -4.999500000000e-01 0.000000000000e+00 4.000000000000e-03 -4.999500000000e-01 0.000000000000e+00 4.100000000000e-03 -4.999500000000e-01 0.000000000000e+00 4.200000000000e-03 -4.999500000000e-01 0.000000000000e+00 4.300000000000e-03 -4.999500000000e-01 0.000000000000e+00 4.400000000000e-03 -4.999500000000e-01 0.000000000000e+00 4.500000000000e-03 -4.999500000000e-01 0.000000000000e+00 4.600000000000e-03 -4.999500000000e-01 0.000000000000e+00 4.700000000000e-03 -4.999500000000e-01 0.000000000000e+00 4.800000000000e-03 -4.999500000000e-01 0.000000000000e+00 4.900000000000e-03 -4.999500000000e-01 0.000000000000e+00 5.000000000000e-03 -4.999500000000e-01 0.000000000000e+00 5.100000000000e-03 -4.999500000000e-01 0.000000000000e+00 5.200000000000e-03 -4.999500000000e-01 0.000000000000e+00 5.300000000000e-03 -4.999500000000e-01 0.000000000000e+00 5.400000000000e-03 -4.999500000000e-01 0.000000000000e+00 5.500000000000e-03 -4.999500000000e-01 0.000000000000e+00 5.600000000000e-03 -4.999500000000e-01 0.000000000000e+00 5.700000000000e-03 -4.999500000000e-01 0.000000000000e+00 5.800000000000e-03 -4.999500000000e-01 0.000000000000e+00 5.900000000000e-03 -4.999500000000e-01 0.000000000000e+00 6.000000000000e-03 -4.999500000000e-01 0.000000000000e+00 6.100000000000e-03 -4.999500000000e-01 0.000000000000e+00 6.200000000000e-03 -4.999500000000e-01 0.000000000000e+00 6.300000000000e-03 -4.999500000000e-01 0.000000000000e+00 6.400000000000e-03 -4.999500000000e-01 0.000000000000e+00 6.500000000000e-03 -4.999500000000e-01 0.000000000000e+00 6.600000000000e-03 -4.999500000000e-01 0.000000000000e+00 6.700000000000e-03 -4.999500000000e-01 0.000000000000e+00 6.800000000000e-03 -4.999500000000e-01 0.000000000000e+00 6.900000000000e-03 -4.999500000000e-01 0.000000000000e+00 7.000000000000e-03 -4.999500000000e-01 0.000000000000e+00 7.100000000000e-03 -4.999500000000e-01 0.000000000000e+00 7.200000000000e-03 -4.999500000000e-01 0.000000000000e+00 7.300000000000e-03 -4.999500000000e-01 0.000000000000e+00 7.400000000000e-03 -4.999500000000e-01 0.000000000000e+00 7.500000000000e-03 -4.999500000000e-01 0.000000000000e+00 7.600000000000e-03 -4.999500000000e-01 0.000000000000e+00 7.700000000000e-03 -4.999500000000e-01 0.000000000000e+00 7.800000000000e-03 -4.999500000000e-01 0.000000000000e+00 7.900000000000e-03 -4.999500000000e-01 0.000000000000e+00 8.000000000000e-03 -4.999500000000e-01 0.000000000000e+00 8.100000000000e-03 -4.999500000000e-01 0.000000000000e+00 8.200000000000e-03 -4.999500000000e-01 0.000000000000e+00 8.300000000000e-03 -4.999500000000e-01 0.000000000000e+00 8.400000000000e-03 -4.999500000000e-01 0.000000000000e+00 8.500000000000e-03 -4.999500000000e-01 0.000000000000e+00 8.600000000000e-03 -4.999500000000e-01 0.000000000000e+00 8.700000000000e-03 -4.999500000000e-01 0.000000000000e+00 8.800000000000e-03 -4.999500000000e-01 0.000000000000e+00 8.900000000000e-03 -4.999500000000e-01 0.000000000000e+00 9.000000000000e-03 -4.999500000000e-01 0.000000000000e+00 9.100000000000e-03 -4.999500000000e-01 0.000000000000e+00 9.200000000000e-03 -4.999500000000e-01 0.000000000000e+00 9.300000000000e-03 -4.999500000000e-01 0.000000000000e+00 9.400000000000e-03 -4.999500000000e-01 0.000000000000e+00 9.500000000000e-03 -4.999500000000e-01 0.000000000000e+00 9.600000000000e-03 -4.999500000000e-01 0.000000000000e+00 9.700000000000e-03 -4.999500000000e-01 0.000000000000e+00 9.800000000000e-03 -4.999500000000e-01 0.000000000000e+00 9.900000000000e-03 -4.999500000000e-01 0.000000000000e+00 1.000000000000e-02 -4.999500000000e-01 0.000000000000e+00 6.776263578034e-21 5.000500000000e-01 0.000000000000e+00 1.000000000000e-04 5.000500000000e-01 0.000000000000e+00 2.000000000000e-04 5.000500000000e-01 0.000000000000e+00 3.000000000000e-04 5.000500000000e-01 0.000000000000e+00 4.000000000000e-04 5.000500000000e-01 0.000000000000e+00 5.000000000000e-04 5.000500000000e-01 0.000000000000e+00 6.000000000000e-04 5.000500000000e-01 0.000000000000e+00 7.000000000000e-04 5.000500000000e-01 0.000000000000e+00 8.000000000000e-04 5.000500000000e-01 0.000000000000e+00 9.000000000000e-04 5.000500000000e-01 0.000000000000e+00 1.000000000000e-03 5.000500000000e-01 0.000000000000e+00 1.100000000000e-03 5.000500000000e-01 0.000000000000e+00 1.200000000000e-03 5.000500000000e-01 0.000000000000e+00 1.300000000000e-03 5.000500000000e-01 0.000000000000e+00 1.400000000000e-03 5.000500000000e-01 0.000000000000e+00 1.500000000000e-03 5.000500000000e-01 0.000000000000e+00 1.600000000000e-03 5.000500000000e-01 0.000000000000e+00 1.700000000000e-03 5.000500000000e-01 0.000000000000e+00 1.800000000000e-03 5.000500000000e-01 0.000000000000e+00 1.900000000000e-03 5.000500000000e-01 0.000000000000e+00 2.000000000000e-03 5.000500000000e-01 0.000000000000e+00 2.100000000000e-03 5.000500000000e-01 0.000000000000e+00 2.200000000000e-03 5.000500000000e-01 0.000000000000e+00 2.300000000000e-03 5.000500000000e-01 0.000000000000e+00 2.400000000000e-03 5.000500000000e-01 0.000000000000e+00 2.500000000000e-03 5.000500000000e-01 0.000000000000e+00 2.600000000000e-03 5.000500000000e-01 0.000000000000e+00 2.700000000000e-03 5.000500000000e-01 0.000000000000e+00 2.800000000000e-03 5.000500000000e-01 0.000000000000e+00 2.900000000000e-03 5.000500000000e-01 0.000000000000e+00 3.000000000000e-03 5.000500000000e-01 0.000000000000e+00 3.100000000000e-03 5.000500000000e-01 0.000000000000e+00 3.200000000000e-03 5.000500000000e-01 0.000000000000e+00 3.300000000000e-03 5.000500000000e-01 0.000000000000e+00 3.400000000000e-03 5.000500000000e-01 0.000000000000e+00 3.500000000000e-03 5.000500000000e-01 0.000000000000e+00 3.600000000000e-03 5.000500000000e-01 0.000000000000e+00 3.700000000000e-03 5.000500000000e-01 0.000000000000e+00 3.800000000000e-03 5.000500000000e-01 0.000000000000e+00 3.900000000000e-03 5.000500000000e-01 0.000000000000e+00 4.000000000000e-03 5.000500000000e-01 0.000000000000e+00 4.100000000000e-03 5.000500000000e-01 0.000000000000e+00 4.200000000000e-03 5.000500000000e-01 0.000000000000e+00 4.300000000000e-03 5.000500000000e-01 0.000000000000e+00 4.400000000000e-03 5.000500000000e-01 0.000000000000e+00 4.500000000000e-03 5.000500000000e-01 0.000000000000e+00 4.600000000000e-03 5.000500000000e-01 0.000000000000e+00 4.700000000000e-03 5.000500000000e-01 0.000000000000e+00 4.800000000000e-03 5.000500000000e-01 0.000000000000e+00 4.900000000000e-03 5.000500000000e-01 0.000000000000e+00 5.000000000000e-03 5.000500000000e-01 0.000000000000e+00 5.100000000000e-03 5.000500000000e-01 0.000000000000e+00 5.200000000000e-03 5.000500000000e-01 0.000000000000e+00 5.300000000000e-03 5.000500000000e-01 0.000000000000e+00 5.400000000000e-03 5.000500000000e-01 0.000000000000e+00 5.500000000000e-03 5.000500000000e-01 0.000000000000e+00 5.600000000000e-03 5.000500000000e-01 0.000000000000e+00 5.700000000000e-03 5.000500000000e-01 0.000000000000e+00 5.800000000000e-03 5.000500000000e-01 0.000000000000e+00 5.900000000000e-03 5.000500000000e-01 0.000000000000e+00 6.000000000000e-03 5.000500000000e-01 0.000000000000e+00 6.100000000000e-03 5.000500000000e-01 0.000000000000e+00 6.200000000000e-03 5.000500000000e-01 0.000000000000e+00 6.300000000000e-03 5.000500000000e-01 0.000000000000e+00 6.400000000000e-03 5.000500000000e-01 0.000000000000e+00 6.500000000000e-03 5.000500000000e-01 0.000000000000e+00 6.600000000000e-03 5.000500000000e-01 0.000000000000e+00 6.700000000000e-03 5.000500000000e-01 0.000000000000e+00 6.800000000000e-03 5.000500000000e-01 0.000000000000e+00 6.900000000000e-03 5.000500000000e-01 0.000000000000e+00 7.000000000000e-03 5.000500000000e-01 0.000000000000e+00 7.100000000000e-03 5.000500000000e-01 0.000000000000e+00 7.200000000000e-03 5.000500000000e-01 0.000000000000e+00 7.300000000000e-03 5.000500000000e-01 0.000000000000e+00 7.400000000000e-03 5.000500000000e-01 0.000000000000e+00 7.500000000000e-03 5.000500000000e-01 0.000000000000e+00 7.600000000000e-03 5.000500000000e-01 0.000000000000e+00 7.700000000000e-03 5.000500000000e-01 0.000000000000e+00 7.800000000000e-03 5.000500000000e-01 0.000000000000e+00 7.900000000000e-03 5.000500000000e-01 0.000000000000e+00 8.000000000000e-03 5.000500000000e-01 0.000000000000e+00 8.100000000000e-03 5.000500000000e-01 0.000000000000e+00 8.200000000000e-03 5.000500000000e-01 0.000000000000e+00 8.300000000000e-03 5.000500000000e-01 0.000000000000e+00 8.400000000000e-03 5.000500000000e-01 0.000000000000e+00 8.500000000000e-03 5.000500000000e-01 0.000000000000e+00 8.600000000000e-03 5.000500000000e-01 0.000000000000e+00 8.700000000000e-03 5.000500000000e-01 0.000000000000e+00 8.800000000000e-03 5.000500000000e-01 0.000000000000e+00 8.900000000000e-03 5.000500000000e-01 0.000000000000e+00 9.000000000000e-03 5.000500000000e-01 0.000000000000e+00 9.100000000000e-03 5.000500000000e-01 0.000000000000e+00 9.200000000000e-03 5.000500000000e-01 0.000000000000e+00 9.300000000000e-03 5.000500000000e-01 0.000000000000e+00 9.400000000000e-03 5.000500000000e-01 0.000000000000e+00 9.500000000000e-03 5.000500000000e-01 0.000000000000e+00 9.600000000000e-03 5.000500000000e-01 0.000000000000e+00 9.700000000000e-03 5.000500000000e-01 0.000000000000e+00 9.800000000000e-03 5.000500000000e-01 0.000000000000e+00 9.900000000000e-03 5.000500000000e-01 0.000000000000e+00 1.000000000000e-02 5.000500000000e-01 0.000000000000e+00
        </DataArray>
      </Points>
      <Cells>
        <DataArray type="Int32" Name="connectivity" format="ascii">
          0 1 102 101 1 2 103 102 2 3 104 103 3 4 105 104 4 5 106 105 5 6 107 106 6 7 108 107 7 8 109 108 8 9 110 109 9 10 111 110 10 11 112 111 11 12 113 112 12 13 114 113 13 14 115 114 14 15 116 115 15 16 117 116 16 17 118 117 17 18 119 118 18 19 120 119 19 20 121 120 20 21 122 121 21 22 123 122 22 23 124 123 23 24 125 124 24 25 126 125 25 26 127 126 26 27 128 127 27 28 129 128 28 29 130 129 29 30 131 130 30 31 132 131 31 32 133 132 32 33 134 133 33 34 135 134 34 35 136 135 35 36 137 136 36 37 138 137 37 38 139 138 38 39 140 139 39 40 141 140 40 41 142 141 41 42 143 142 42 43 144 143 43 44 145 144 44 45 146 145 45 46 147 146 46 47 148 147 47 48 149 148 48 49 150 149 49 50 151 150 50 51 152 151 51 52 153 152 52 53 154 153 53 54 155 154 54 55 156 155 55 56 157 156 56 57 158 157 57 58 159 158 58 59 160 159 59 60 161 160 60 61 162 161 61 62 163 162 62 63 164 163 63 64 165 164 64 65 166 165 65 66 167 166 66 67 168 167 67 68 169 168 68 69 170 169 69 70 171 170 70 71 172 171 71 72 173 172 72 73 174 173 73 74 175 174 74 75 176 175 75 76 177 176 76 77 178 177 77 78 179 178 78 79 180 179 79 80 181 180 80 81 182 181 81 82 183 182 82 83 184 183 83 84 185 184 84 85 186 185 85 86 187 186 86 87 188 187 87 88 189 188 88 89 190 189 89 90 191 190 90 91 192 191 91 92 193 192 92 93 194 193 93 94 195 194 94 95 196 195 95 96 197 196 96 97 198 197 97 98 199 198 98 99 200 199 99 100 201 200
        </DataArray>
        <DataArray type="Int32" Name="offsets" format="ascii">
          4 8 12 16 20 24 28 32 36 40 44 48 52 56 60 64 68 72 76 80 84 88 92 96 100 104 108 112 116 120 124 128 132 136 140 144 148 152 156 160 164 168 172 176 180 184 188 192 196 200 204 208 212 216 220 224 228 232 236 240 244 248 252 256 260 264 268 272 276 280 284 288 292 296 300 304 308 312 316 320 324 328 332 336 340 344 348 352 356 360 364 368 372 376 380 384 388 392 396 400
        </DataArray>
        <DataArray type="UInt8" Name="types" format="ascii">
          9 9 9 9 9 9 9 9 9 9 9 9 9 9 9 9 9 9 9 9 9 9 9 9 9 9 9 9 9 9 9 9 9 9 9 9 9 9 9 9 9 9 9 9 9 9 9 9 9 9 9 9 9 9 9 9 9 9 9 9 9 9 9 9 9 9 9 9 9 9 9 9 9 9 9 9 9 9 9 9 9 9 9 9 9 9 9 9 9 9 9 9 9 9 9 9 9 9 9 9
        </DataArray>
      </Cells>
      <CellData>
        <DataArray type="Float64" Name="id" format="ascii">
          1.000000000000e+00 2.000000000000e+00 3.000000000000e+00 4.000000000000e+00 5.000000000000e+00 6.000000000000e+00 7.000000000000e+00 8.000000000000e+00 9.000000000000e+00 1.000000000000e+01 1.100000000000e+01 1.200000000000e+01 1.300000000000e+01 1.400000000000e+01 1.500000000000e+01 1.600000000000e+01 1.700000000000e+01 1.800000000000e+01 1.900000000000e+01 2.000000000000e+01 2.100000000000e+01 2.200000000000e+01 2.300000000000e+01 2.400000000000e+01 2.500000000000e+01 2.600000000000e+01 2.700000000000e+01 2.800000000000e+01 2.900000000000e+01 3.000000000000e+01 3.100000000000e+01 3.200000000000e+01 3.300000000000e+01 3.400000000000e+01 3.500000000000e+01 3.600000000000e+01 3.700000000000e+01 3.800000000000e+01 3.900000000000e+01 4.000000000000e+01 4.100000000000e+01 4.200000000000e+01 4.300000000000e+01 4.400000000000e+01 4.500000000000e+01 4.600000000000e+01 4.700000000000e+01 4.800000000000e+01 4.900000000000e+01 5.000000000000e+01 5.100000000000e+01 5.200000000000e+01 5.300000000000e+01 5.400000000000e+01 5.500000000000e+01 5.600000000000e+01 5.700000000000e+01 5.800000000000e+01 5.900000000000e+01 6.000000000000e+01 6.100000000000e+01 6.200000000000e+01 6.300000000000e+01 6.400000000000e+01 6.500000000000e+01 6.600000000000e+01 6.700000000000e+01 6.800000000000e+01 6.900000000000e+01 7.000000000000e+01 7.100000000000e+01 7.200000000000e+01 7.300000000000e+01 7.400000000000e+01 7.500000000000e+01 7.600000000000e+01 7.700000000000e+01 7.800000000000e+01 7.900000000000e+01 8.000000000000e+01 8.100000000000e+01 8.200000000000e+01 8.300000000000e+01 8.400000000000e+01 8.500000000000e+01 8.600000000000e+01 8.700000000000e+01 8.800000000000e+01 8.900000000000e+01 9.000000000000e+01 9.100000000000e+01 9.200000000000e+01 9.300000000000e+01 9.400000000000e+01 9.500000000000e+01 9.600000000000e+01 9.700000000000e+01 9.800000000000e+01 9.900000000000e+01 1.000000000000e+02
        </DataArray>
        <DataArray type="Float64" Name="vol" format="ascii">
          1.000000000000e-08 1.000000000000e-08 1.000000000000e-08 1.000000000000e-08 1.000000000000e-08 1.000000000000e-08 1.000000000000e-08 1.000000000000e-08 1.000000000000e-08 1.000000000000e-08 1.000000000000e-08 1.000000000000e-08 1.000000000000e-08 1.000000000000e-08 1.000000000000e-08 1.000000000000e-08 1.000000000000e-08 1.000000000000e-08 1.000000000000e-08 1.000000000000e-08 1.000000000000e-08 1.000000000000e-08 1.000000000000e-08 1.000000000000e-08 1.000000000000e-08 1.000000000000e-08 1.000000000000e-08 1.000000000000e-08 1.000000000000e-08 1.000000000000e-08 1.000000000000e-08 1.000000000000e-08 1.000000000000e-08 1.000000000000e-08 1.000000000000e-08 1.000000000000e-08 1.000000000000e-08 1.000000000000e-08 1.000000000000e-08 1.000000000000e-08 1.000000000000e-08 1.000000000000e-08 1.000000000000e-08 1.000000000000e-08 1.000000000000e-08 1.000000000000e-08 1.000000000000e-08 1.000000000000e-08 1.000000000000e-08 1.000000000000e-08 1.000000000000e-08 1.000000000000e-08 1.000000000000e-08 1.000000000000e-08 1.000000000000e-08 1.000000000000e-08 1.000000000000e-08 1.000000000000e-08 1.000000000000e-08 1.000000000000e-08 1.000000000000e-08 1.000000000000e-08 1.000000000000e-08 1.000000000000e-08 1.000000000000e-08 1.000000000000e-08 1.000000000000e-08 1.000000000000e-08 1.000000000000e-08 1.000000000000e-08 1.000000000000e-08 1.000000000000e-08 1.000000000000e-08 1.000000000000e-08 1.000000000000e-08 1.000000000000e-08 1.000000000000e-08 1.000000000000e-08 1.000000000000e-08 1.000000000000e-08 1.000000000000e-08 1.000000000000e-08 1.000000000000e-08 1.000000000000e-08 1.000000000000e-08 1.000000000000e-08 1.000000000000e-08 1.000000000000e-08 1.000000000000e-08 1.000000000000e-08 1.000000000000e-08 1.000000000000e-08 1.000000000000e-08 1.000000000000e-08 1.000000000000e-08 1.000000000000e-08 1.000000000000e-08 1.000000000000e-08 1.000000000000e-08 1.000000000000e-08
        </DataArray>
        <DataArray type="Float64" Name="f_avg[1]" format="ascii">
          3.533555588436e+22 3.226003868967e+22 2.979425878318e+22 2.772469509263e+22 2.603380038922e+22 2.465414032574e+22 2.343923917325e+22 2.227613861770e+22 2.141924719257e+22 2.061523926705e+22 1.989338475423e+22 1.922900819218e+22 1.866257649740e+22 1.809199192341e+22 1.769655371523e+22 1.724812687125e+22 1.693896341411e+22 1.655980028691e+22 1.615329123875e+22 1.586449266008e+22 1.559386161369e+22 1.533896945376e+22 1.503466328823e+22 1.479143073090e+22 1.454644239932e+22 1.443488239647e+22 1.420237372972e+22 1.399705327966e+22 1.382425145072e+22 1.368806855402e+22 1.357785429431e+22 1.346413899973e+22 1.334893077136e+22 1.327063585654e+22 1.312994261762e+22 1.306069992808e+22 1.292770265770e+22 1.285209922914e+22 1.278329811156e+22 1.270770519661e+22 1.260613313107e+22 1.260036115467e+22 1.258640958330e+22 1.258135253294e+22 1.255400661197e+22 1.254184235570e+22 1.254559571740e+22 1.250099694895e+22 1.249505675466e+22 1.250438233401e+22 1.243457190909e+22 1.245677667075e+22 1.243352054726e+22 1.244802934040e+22 1.249675996081e+22 1.254746714145e+22 1.256741147519e+22 1.257595904680e+22 1.261485943418e+22 1.264982772836e+22 1.274177983324e+22 1.279851131711e+22 1.290014646437e+22 1.287573384288e+22 1.306719734414e+22 1.316892711395e+22 1.324301658149e+22 1.339504350084e+22 1.349894958963e+22 1.367494755850e+22 1.377305013003e+22 1.390769803847e+22 1.402956138717e+22 1.416022463431e+22 1.432430016012e+22 1.456853151119e+22 1.468790313236e+22 1.492830752640e+22 1.522215264180e+22 1.548591829551e+22 1.572260086869e+22 1.613890860903e+22 1.640960273714e+22 1.675799250383e+22 1.716485901501e+22 1.761711281602e+22 1.805166168395e+22 1.860972453864e+22 1.915177515280e+22 1.975144039475e+22 2.048890763061e+22 2.130854930642e+22 2.232256675572e+22 2.331014245523e+22 2.456197794849e+22 2.601542258459e+22 2.772466355178e+22 2.977679566333e+22 3.219075394565e+22 3.544468724140e+22
        </DataArray>
        <DataArray type="Float64" Name="f_avg[2]" format="ascii">
          -8.113896785919e-03 -3.740834514314e-02 1.716498001403e-02 8.237149045513e-03 -1.107084084262e-02 -7.018112429769e-02 -1.708796751863e-02 1.773886919333e-02 -3.036962353302e-02 -4.066312018287e-02 -4.744234920442e-02 -8.125334848972e-02 7.273090644856e-02 -7.597383977101e-02 -3.430003265003e-02 -5.306093613968e-02 -1.719547572267e-01 -3.013685030106e-02 -1.743419132414e-01 2.916029083282e-02 -1.260894332039e-03 -2.825953613274e-01 3.900876098594e-02 -6.140872534186e-02 -2.342434661474e-02 -6.404627670438e-02 -7.563361536510e-02 -1.375102793396e-01 -1.384144038405e-01 -8.610676300789e-02 -1.031938663775e-01 -9.052355478992e-02 -1.712047350786e-01 -5.596263934674e-02 -2.075350769517e-01 -1.187990404236e-01 -1.137628346539e-01 -2.326124924950e-02 -1.752194732357e-01 -1.195032708263e-01 -3.107883002146e-02 -8.669538017985e-02 -2.815610217045e-01 -2.010802181856e-01 -2.088625004883e-01 -3.380482928599e-02 -1.320432923704e-01 -1.730181702491e-01 -6.989725220678e-02 -1.576014964192e-01 -1.174446378409e-01 -7.018462880943e-02 2.250585338887e-02 -1.935662109856e-01 -9.123293147397e-02 -5.542304663265e-03 -1.309839950723e-01 5.123350967312e-02 -3.590266681183e-01 1.763270355442e-02 -1.539907804380e-01 -1.291616578395e-01 -1.822213806343e-01 -1.076899895436e-01 -3.037275451843e-02 -5.583691245403e-02 -2.068879057247e-01 -1.231335247532e-01 -4.420470971107e-02 -1.346289799219e-01 -4.172579909846e-02 -1.367268426510e-01 -6.713870098948e-02 -1.140359361372e-01 -2.432432889225e-02 -1.422289455967e-01 3.827388821850e-02 -1.369626201528e-01 -1.397053928532e-01 -8.820966658825e-02 2.706655962265e-02 1.543886126298e-02 -1.119385025943e-01 -3.712564896668e-02 2.131036414042e-03 -1.611279222325e-01 -4.331794746033e-02 5.044631374474e-02 -6.973195735894e-02 -1.462615356591e-02 2.940108377277e-02 -8.132532417019e-02 7.484689910109e-02 2.562644953340e-02 2.227906254485e-03 3.087663572386e-02 1.060680604766e-02 -6.110389682822e-03 6.816574568429e-03 5.580107013993e-03
        </DataArray>
        <DataArray type="Float64" Name="f_avg[3]" format="ascii">
          -9.752410344249e+02 -9.518063668950e+02 -9.287969940371e+02 -9.072239133889e+02 -8.853553695427e+02 -8.651907904515e+02 -8.421949580017e+02 -8.206972688225e+02 -7.990068430135e+02 -7.776448591298e+02 -7.567370006656e+02 -7.342481682811e+02 -7.132947564557e+02 -6.905584226854e+02 -6.692094002156e+02 -6.481320509854e+02 -6.268205127651e+02 -6.074317117351e+02 -5.858037580100e+02 -5.659660971325e+02 -5.475406593245e+02 -5.272999412541e+02 -5.056275410604e+02 -4.901356296243e+02 -4.715942034951e+02 -4.514206427813e+02 -4.342303722576e+02 -4.122006097139e+02 -3.950290483924e+02 -3.781114618878e+02 -3.582022126064e+02 -3.384091138678e+02 -3.164948007934e+02 -2.986080758356e+02 -2.791268854639e+02 -2.620526909575e+02 -2.453453430559e+02 -2.276522921533e+02 -2.089352126246e+02 -1.935350091313e+02 -1.737191484478e+02 -1.547900031241e+02 -1.371121472470e+02 -1.167185526273e+02 -9.664147698277e+01 -8.100598576496e+01 -6.440671314660e+01 -4.620119142021e+01 -2.687396641032e+01 -9.501582851703e+00 7.805786667964e+00 2.508433038141e+01 4.165605581845e+01 6.149714869904e+01 7.932237366183e+01 9.809631698026e+01 1.169440729396e+02 1.345402974405e+02 1.501044657008e+02 1.701139672084e+02 1.898316905283e+02 2.081597185298e+02 2.246464716196e+02 2.419051595037e+02 2.599347373110e+02 2.778578462827e+02 2.981556845761e+02 3.183164297680e+02 3.371390524687e+02 3.556248439581e+02 3.740769710564e+02 3.946361319147e+02 4.110084507246e+02 4.294466439488e+02 4.509614194747e+02 4.695492792667e+02 4.876776956342e+02 5.072745632804e+02 5.269098298607e+02 5.484110746644e+02 5.671549143691e+02 5.870575437327e+02 6.072498291128e+02 6.276753786256e+02 6.464430601558e+02 6.677506993795e+02 6.876990825381e+02 7.065082275039e+02 7.283806189840e+02 7.497516310829e+02 7.715759418338e+02 7.935687066928e+02 8.158828948844e+02 8.376257548894e+02 8.604623365103e+02 8.817853663206e+02 9.036656428229e+02 9.275349464220e+02 9.511888882593e+02 9.749623441613e+02
        </DataArray>
        <DataArray type="Float64" Name="f_avg[4]" format="ascii">
          1.165203929715e+00 8.135401456240e-01 -5.449936631208e-01 -1.086669337357e+00 -7.598406973937e-01 -1.007866460256e-01 -5.446824729284e-01 1.419727988287e-01 8.271739903025e-01 2.772968861042e+00 2.071012686747e+00 2.142010245636e+00 1.581285271838e+00 2.969680425984e+00 1.836033319370e+00 2.558147661139e+00 3.118743944002e+00 4.476106606552e+00 3.163644569389e+00 4.022144973788e+00 4.373522742381e+00 3.417332237913e+00 3.488831677678e+00 5.375599279100e+00 4.217659949203e+00 5.204427083662e+00 5.250522344108e+00 3.650530807916e+00 5.556818451724e+00 4.545732118844e+00 2.569436114053e+00 3.236431685938e+00 3.950671465539e+00 5.288070236950e+00 3.489210600312e+00 2.455977373951e+00 4.080326178332e+00 4.729504918439e+00 3.250104973411e+00 3.378507850014e+00 3.357862506786e+00 1.295086021208e+00 4.533949965438e+00 3.377934565550e+00 3.334144156753e+00 2.031857174582e+00 3.861540279302e-01 1.701481389468e+00 2.052418420777e+00 1.009032551573e+00 8.160075871904e-01 4.393405462788e-04 4.268790087853e-01 -7.414388139772e-01 3.296050596115e-01 6.275014730020e-01 1.892775547268e+00 7.370375700160e-01 1.077418286060e+00 4.989638233780e-01 -1.196469001619e+00 -1.358863461054e+00 -9.547368554988e-01 -1.993665860524e+00 -1.626381126682e+00 -1.297831623149e+00 1.776498468856e-01 -1.631258745651e+00 -1.420238075446e+00 -1.844277855085e+00 -1.145215933027e+00 -2.181154931317e+00 -3.130308313276e+00 6.724022343980e-01 -4.661223564373e-01 3.565967003923e+00 2.405649102214e+00 2.520251795929e+00 1.395244634245e+00 2.239848297856e+00 1.616096624039e+00 4.787840663721e+00 5.582616761798e+00 6.718382523752e+00 3.393937467662e+00 4.032021123750e+00 3.793691057494e+00 4.159775069346e+00 3.525556967812e+00 1.465043690042e+00 1.501162162079e+00 1.673496970976e+00 6.549767471174e-01 1.336678258110e-01 -3.229095799017e-01 -4.442276174682e-01 -2.765470564917e-01 1.132329520883e+00 1.871448492982e+00 1.727117648223e+00
        </DataArray>
        <DataArray type="Float64" Name="f_avg[5]" format="ascii">
          2.342747355133e-03 2.138840565125e-03 1.975359357325e-03 1.838147284641e-03 1.726040965805e-03 1.634569503596e-03 1.554021557187e-03 1.476907990354e-03 1.420096088867e-03 1.366790363405e-03 1.318931409206e-03 1.274883243142e-03 1.237328821777e-03 1.199499064522e-03 1.173281511319e-03 1.143550811564e-03 1.123053274355e-03 1.097914759022e-03 1.070963209129e-03 1.051815863363e-03 1.033873024987e-03 1.016973674784e-03 9.967981760096e-04 9.806718574584e-04 9.644291310750e-04 9.570327028862e-04 9.416173782802e-04 9.280046324411e-04 9.165478711830e-04 9.075189451318e-04 9.002117397126e-04 8.926724156819e-04 8.850341101412e-04 8.798431572884e-04 8.705151955485e-04 8.659244052317e-04 8.571066862054e-04 8.520941788917e-04 8.475326647962e-04 8.425208545355e-04 8.357866265898e-04 8.354039445546e-04 8.344789553729e-04 8.341436729341e-04 8.323306383738e-04 8.315241481830e-04 8.317729960638e-04 8.288160977153e-04 8.284222628338e-04 8.290405487450e-04 8.244121175723e-04 8.258842932706e-04 8.243424122836e-04 8.253043452683e-04 8.285351854016e-04 8.318970714778e-04 8.332193808053e-04 8.337860848028e-04 8.363651804864e-04 8.386835783900e-04 8.447800029437e-04 8.485413003244e-04 8.552797105874e-04 8.536611537827e-04 8.663551839162e-04 8.730998676551e-04 8.780119993530e-04 8.880913841056e-04 8.949803577923e-04 9.066490231282e-04 9.131532236211e-04 9.220803799507e-04 9.301599199691e-04 9.388228932544e-04 9.497011006160e-04 9.658936391915e-04 9.738079776757e-04 9.897467890002e-04 1.009228720152e-03 1.026716382992e-03 1.042408437594e-03 1.070009640779e-03 1.087956661472e-03 1.111054903004e-03 1.138030152695e-03 1.168014579702e-03 1.196825169646e-03 1.233824736912e-03 1.269762692630e-03 1.309520498172e-03 1.358414575910e-03 1.412756819015e-03 1.479986175904e-03 1.545462444782e-03 1.628459137985e-03 1.724822517358e-03 1.838145193483e-03 1.974201552479e-03 2.134246986597e-03 2.349982764105e-03
        </DataArray>
        <DataArray type="Float64" Name="f_avg[6]" format="ascii">