ITEM: TIMESTEP
160000
ITEM: NUMBER OF CELLS
100
ITEM: BOX BOUNDS ss pp pp
0 0.01
0 0.0001
-0.5 0.5
ITEM: CELLS id xc yc vol f_avg[1] f_avg[2] f_avg[3] f_avg[4] f_avg[5] f_avg[6] f_avg[7] 
1 5.000000000000e-05 5.000000000000e-05 1.000000000000e-08 3.532906898192e+22 -4.942858898988e-02 -9.750040509259e+02 1.419078583746e+00 2.342317273501e-03 3.503988063588e+02 1.709141791150e+02 
2 1.500000000000e-04 5.000000000000e-05 1.000000000000e-08 3.226729308624e+22 -8.324062838977e-02 -9.504791083028e+02 1.018314111329e+00 2.139321531617e-03 3.858193818973e+02 1.718817858841e+02 
3 2.500000000000e-04 5.000000000000e-05 1.000000000000e-08 2.977974473324e+22 6.320600380697e-02 -9.263253423566e+02 -9.721738123221e-01 1.974397075814e-03 4.169756015897e+02 1.714410813606e+02 
4 3.500000000000e-04 5.000000000000e-05 1.000000000000e-08 2.763034062599e+22 -6.619908044159e-03 -9.047187978839e+02 -2.918035938962e-01 1.831891583503e-03 4.476877848673e+02 1.707830504430e+02 
5 4.500000000000e-04 5.000000000000e-05 1.000000000000e-08 2.580801518131e+22 1.147792840890e-02 -8.847551319492e+02 1.916492264634e+00 1.711071406521e-03 4.785360999295e+02 1.705110755930e+02 
6 5.500000000000e-04 5.000000000000e-05 1.000000000000e-08 2.446235090231e+22 -1.355474326446e-01 -8.650122672876e+02 3.346803560775e+00 1.621853864823e-03 5.079131544866e+02 1.715421840450e+02 
7 6.500000000000e-04 5.000000000000e-05 1.000000000000e-08 2.318670732061e+22 -7.901094190133e-03 -8.417316741109e+02 1.678904357334e+00 1.537278695357e-03 5.345335655605e+02 1.711186495962e+02 
8 7.500000000000e-04 5.000000000000e-05 1.000000000000e-08 2.197824575928e+22 7.781245160413e-02 -8.191770433787e+02 1.789198911038e+00 1.457157693840e-03 5.625161645651e+02 1.706912720548e+02 
9 8.500000000000e-04 5.000000000000e-05 1.000000000000e-08 2.116422886922e+22 -4.385318508355e-02 -7.972930676736e+02 2.157687681007e+00 1.403188374029e-03 5.837355918672e+02 1.705697080781e+02 
10 9.500000000000e-04 5.000000000000e-05 1.000000000000e-08 2.042943209239e+22 6.442044654333e-04 -7.761453742274e+02 4.159968667291e+00 1.354471347725e-03 6.061420140652e+02 1.709676587426e+02 
11 1.050000000000e-03 5.000000000000e-05 1.000000000000e-08 1.971747615112e+22 6.495864959988e-02 -7.546720484032e+02 2.731578314117e+00 1.307268668819e-03 6.283718909742e+02 1.710611377870e+02 
12 1.150000000000e-03 5.000000000000e-05 1.000000000000e-08 1.912747818111e+22 7.269572627997e-02 -7.315552854008e+02 3.449312452093e+00 1.268151803408e-03 6.491041203494e+02 1.714175816643e+02 
13 1.250000000000e-03 5.000000000000e-05 1.000000000000e-08 1.864322092627e+22 2.203147852703e-01 -7.084987786258e+02 3.557290125039e+00 1.236045547411e-03 6.659672126212e+02 1.714182578412e+02 
14 1.350000000000e-03 5.000000000000e-05 1.000000000000e-08 1.805811178873e+22 1.236553931649e-01 -6.874061851427e+02 4.264079763295e+00 1.197252811593e-03 6.844404666654e+02 1.706441084138e+02 
15 1.450000000000e-03 5.000000000000e-05 1.000000000000e-08 1.760789237284e+22 1.254763940634e-01 -6.676065732913e+02 3.722718916188e+00 1.167403264320e-03 7.024527870733e+02 1.707685133386e+02 
16 1.550000000000e-03 5.000000000000e-05 1.000000000000e-08 1.726493814677e+22 1.979978905833e-01 -6.461306630198e+02 4.362642082944e+00 1.144665399131e-03 7.217888660300e+02 1.720515097975e+02 
17 1.650000000000e-03 5.000000000000e-05 1.000000000000e-08 1.690942014693e+22 -4.002601892832e-02 -6.222426207780e+02 6.182224840799e+00 1.121094555742e-03 7.358906470536e+02 1.718008392506e+02 
18 1.750000000000e-03 5.000000000000e-05 1.000000000000e-08 1.653476736195e+22 6.372273546862e-02 -6.039421561583e+02 6.304213377468e+00 1.096255076097e-03 7.492268878075e+02 1.710388336357e+02 
19 1.850000000000e-03 5.000000000000e-05 1.000000000000e-08 1.616163905161e+22 -1.108193534627e-01 -5.829180914476e+02 7.764310393372e+00 1.071516669122e-03 7.682651683510e+02 1.714272385800e+02 
20 1.950000000000e-03 5.000000000000e-05 1.000000000000e-08 1.584286614742e+22 3.576679845239e-01 -5.613808602083e+02 1.044842054765e+01 1.050382025574e-03 7.863285863851e+02 1.719970903430e+02 
21 2.050000000000e-03 5.000000000000e-05 1.000000000000e-08 1.556648940867e+22 1.858725946362e-01 -5.446746349146e+02 1.349002450327e+01 1.032058247795e-03 7.986899944565e+02 1.716533197531e+02 
22 2.150000000000e-03 5.000000000000e-05 1.000000000000e-08 1.539919145888e+22 -2.748446224954e-01 -5.214475657440e+02 1.044718367302e+01 1.020966393723e-03 8.120614585122e+02 1.726513983221e+02 
23 2.250000000000e-03 5.000000000000e-05 1.000000000000e-08 1.504924567669e+22 2.561633266770e-01 -4.972167799984e+02 7.836819649957e+00 9.977649883646e-04 8.246453707394e+02 1.713425555567e+02 
24 2.350000000000e-03 5.000000000000e-05 1.000000000000e-08 1.480561885867e+22 9.051360035418e-02 -4.798803632232e+02 9.828966025561e+00 9.816125303301e-04 8.356184830944e+02 1.708118063516e+02 
25 2.450000000000e-03 5.000000000000e-05 1.000000000000e-08 1.462396982002e+22 1.536544895868e-01 -4.602232274455e+02 1.106225620051e+01 9.695691990671e-04 8.498984035064e+02 1.715993262079e+02 
26 2.550000000000e-03 5.000000000000e-05 1.000000000000e-08 1.457721050302e+22 1.802541839675e-01 -4.396021662418e+02 1.188261221418e+01 9.664690563502e-04 8.554403886701e+02 1.721660276100e+02 
27 2.650000000000e-03 5.000000000000e-05 1.000000000000e-08 1.432354317961e+22 -1.769521969588e-01 -4.246998370530e+02 1.035612658092e+01 9.496509128081e-04 8.696773930199e+02 1.719855363717e+02 
28 2.750000000000e-03 5.000000000000e-05 1.000000000000e-08 1.410341429830e+22 -1.055969511829e-01 -4.061431263068e+02 1.113554332055e+01 9.350563679771e-04 8.788736831162e+02 1.711330957569e+02 
29 2.850000000000e-03 5.000000000000e-05 1.000000000000e-08 1.390893864542e+22 1.056304131585e-01 -3.880844977987e+02 1.285957678595e+01 9.221626321914e-04 8.892512616545e+02 1.707661409269e+02 
30 2.950000000000e-03 5.000000000000e-05 1.000000000000e-08 1.388825310159e+22 -6.457810379405e-02 -3.714696318860e+02 1.199342610000e+01 9.207911806354e-04 8.961830622334e+02 1.718413345200e+02 
31 3.050000000000e-03 5.000000000000e-05 1.000000000000e-08 1.371674970451e+22 1.980821458646e-02 -3.561903549439e+02 8.512514125627e+00 9.094205054088e-04 9.052848213759e+02 1.714429912230e+02 
32 3.150000000000e-03 5.000000000000e-05 1.000000000000e-08 1.359350381502e+22 1.524952016000e-01 -3.384879219615e+02 9.571932590740e+00 9.012493029356e-04 9.104297129681e+02 1.708681507005e+02 
33 3.250000000000e-03 5.000000000000e-05 1.000000000000e-08 1.350445346876e+22 -1.045778477188e-01 -3.190387214067e+02 1.026380986045e+01 8.953452649789e-04 9.164762940276e+02 1.708761818167e+02 
34 3.350000000000e-03 5.000000000000e-05 1.000000000000e-08 1.338911907698e+22 4.709730789601e-02 -3.009659873721e+02 1.221573775872e+01 8.876985948035e-04 9.258658670695e+02 1.711525446093e+02 
35 3.450000000000e-03 5.000000000000e-05 1.000000000000e-08 1.323625106817e+22 -1.339243340176e-01 -2.826464198790e+02 1.167321482988e+01 8.775634458200e-04 9.378676456223e+02 1.713917183383e+02 
36 3.550000000000e-03 5.000000000000e-05 1.000000000000e-08 1.320334344317e+22 -1.957212934406e-01 -2.636438794100e+02 1.152393753698e+01 8.753816702823e-04 9.415285317846e+02 1.716329583168e+02 
37 3.650000000000e-03 5.000000000000e-05 1.000000000000e-08 1.301068138944e+22 1.301048028429e-02 -2.448819544132e+02 1.330031981238e+01 8.626081761197e-04 9.544587269070e+02 1.714511797011e+02 
38 3.750000000000e-03 5.000000000000e-05 1.000000000000e-08 1.287723729028e+22 1.746393982255e-01 -2.270721479260e+02 1.433799281431e+01 8.537608323457e-04 9.616853605323e+02 1.709775092794e+02 
39 3.850000000000e-03 5.000000000000e-05 1.000000000000e-08 1.281683655365e+22 -1.473176175112e-01 -2.064698748657e+02 1.266624138899e+01 8.497562635073e-04 9.726184597627e+02 1.721102108622e+02 
40 3.950000000000e-03 5.000000000000e-05 1.000000000000e-08 1.271908618833e+22 2.411192184354e-02 -1.923272933471e+02 1.332245430297e+01 8.432754142862e-04 9.751305423840e+02 1.712387118792e+02 
41 4.050000000000e-03 5.000000000000e-05 1.000000000000e-08 1.265361263091e+22 2.630708140898e-02 -1.701984489745e+02 1.337385404452e+01 8.389345174296e-04 9.770551289975e+02 1.706934619436e+02 
42 4.150000000000e-03 5.000000000000e-05 1.000000000000e-08 1.259899438430e+22 -2.050598194385e-01 -1.529705930611e+02 1.157065567807e+01 8.353133276792e-04 9.842818744743e+02 1.712137552073e+02 
43 4.250000000000e-03 5.000000000000e-05 1.000000000000e-08 1.257005565017e+22 1.746535017414e-01 -1.355645352178e+02 1.546485369347e+01 8.333946896065e-04 9.797109996073e+02 1.700272251403e+02 
44 4.350000000000e-03 5.000000000000e-05 1.000000000000e-08 1.259465751679e+22 -1.307582793014e-01 -1.146869760719e+02 1.549481863819e+01 8.350257933632e-04 9.794054444051e+02 1.703068667068e+02 
45 4.450000000000e-03 5.000000000000e-05 1.000000000000e-08 1.254508580692e+22 -1.398940480617e-01 -9.656416106614e+01 1.651879903248e+01 8.317391889988e-04 9.874045956669e+02 1.710220323465e+02 
46 4.550000000000e-03 5.000000000000e-05 1.000000000000e-08 1.255864837441e+22 1.047327226939e-01 -8.243011805590e+01 1.430467665860e+01 8.326383872236e-04 9.862751709472e+02 1.710110933754e+02 
47 4.650000000000e-03 5.000000000000e-05 1.000000000000e-08 1.254448127387e+22 -4.584738219804e-02 -6.523298291686e+01 1.246986037294e+01 8.316991084578e-04 9.850082415692e+02 1.705987538347e+02 
48 4.750000000000e-03 5.000000000000e-05 1.000000000000e-08 1.251575281211e+22 1.620180489114e-01 -4.734242234337e+01 1.357380404424e+01 8.297944114428e-04 9.883037310686e+02 1.707775169586e+02 
49 4.850000000000e-03 5.000000000000e-05 1.000000000000e-08 1.255120998953e+22 -2.219738734211e-01 -2.816967586824e+01 9.895478399574e+00 8.321452223058e-04 9.889146497824e+02 1.713671953193e+02 
50 4.950000000000e-03 5.000000000000e-05 1.000000000000e-08 1.246541886492e+22 3.646210557345e-03 -1.314396435745e+01 8.283537239173e+00 8.264572707441e-04 9.937170650746e+02 1.710223646768e+02 
51 5.050000000000e-03 5.000000000000e-05 1.000000000000e-08 1.238228242891e+22 1.484709207493e-01 3.873017405884e+00 9.951317313383e+00 8.209453250366e-04 1.001903305108e+03 1.712812396907e+02 
52 5.150000000000e-03 5.000000000000e-05 1.000000000000e-08 1.243989705671e+22 8.271827055411e-02 2.260706704621e+01 9.774333925467e+00 8.247651748599e-04 9.979891793813e+02 1.714059532304e+02 
53 5.250000000000e-03 5.000000000000e-05 1.000000000000e-08 1.245829588858e+22 2.211991199814e-01 3.930280375599e+01 8.208824079143e+00 8.259850174129e-04 9.972199339810e+02 1.715271514086e+02 
54 5.350000000000e-03 5.000000000000e-05 1.000000000000e-08 1.246749530452e+22 -2.042260142645e-01 5.800206703653e+01 5.641222490934e+00 8.265949386894e-04 9.913449332198e+02 1.706425322691e+02 
55 5.450000000000e-03 5.000000000000e-05 1.000000000000e-08 1.249795851329e+22 -1.886470276735e-02 7.618125970878e+01 9.209270355553e+00 8.286146494308e-04 9.916160967096e+02 1.711062720791e+02 
56 5.550000000000e-03 5.000000000000e-05 1.000000000000e-08 1.249911501129e+22 9.584718988815e-02 9.339322993144e+01 9.195918020275e+00 8.286913252484e-04 9.908722258177e+02 1.709937364036e+02 
57 5.650000000000e-03 5.000000000000e-05 1.000000000000e-08 1.259523576579e+22 6.378449765154e-02 1.128057890129e+02 5.354333659045e+00 8.350641312720e-04 9.863130168932e+02 1.715158850796e+02 
58 5.750000000000e-03 5.000000000000e-05 1.000000000000e-08 1.248983674322e+22 -6.040446182795e-02 1.288842974203e+02 5.215545904261e+00 8.280761760753e-04 9.813305123245e+02 1.692214245927e+02 
59 5.850000000000e-03 5.000000000000e-05 1.000000000000e-08 1.258727170000e+22 -1.158862252441e-01 1.419642774784e+02 4.357682323311e+00 8.345361137097e-04 9.816649832080e+02 1.705996708760e+02 
60 5.950000000000e-03 5.000000000000e-05 1.000000000000e-08 1.271632636355e+22 -1.299695735213e-01 1.579706419141e+02 6.598307667749e+00 8.430924379032e-04 9.761977275618e+02 1.713889193880e+02 
61 6.050000000000e-03 5.000000000000e-05 1.000000000000e-08 1.283418402370e+22 7.432848958095e-02 1.786376701298e+02 5.751815911667e+00 8.509064007716e-04 9.701692864383e+02 1.719091790961e+02 
62 6.150000000000e-03 5.000000000000e-05 1.000000000000e-08 1.279257637963e+22 -1.367331405645e-01 1.963484524906e+02 8.618732852640e+00 8.481478139695e-04 9.685120302822e+02 1.710591544524e+02 
63 6.250000000000e-03 5.000000000000e-05 1.000000000000e-08 1.291127512924e+22 -1.592190948847e-01 2.148285608412e+02 7.554469523601e+00 8.560175410688e-04 9.661407681363e+02 1.722236649088e+02 
64 6.350000000000e-03 5.000000000000e-05 1.000000000000e-08 1.282445892686e+22 2.303817453711e-02 2.337179658477e+02 5.385591469212e+00 8.502616268507e-04 9.618105979700e+02 1.702989192317e+02 
65 6.450000000000e-03 5.000000000000e-05 1.000000000000e-08 1.299280823848e+22 -9.571905593660e-02 2.493158946926e+02 7.535719516358e+00 8.614231862110e-04 9.551020579353e+02 1.713310562213e+02 
66 6.550000000000e-03 5.000000000000e-05 1.000000000000e-08 1.312435988635e+22 6.909689270710e-02 2.668082900251e+02 6.098154794198e+00 8.701450604653e-04 9.472742674352e+02 1.716473699481e+02 
67 6.650000000000e-03 5.000000000000e-05 1.000000000000e-08 1.317345848340e+22 -4.837470031065e-01 2.920793137574e+02 7.329393987637e+00 8.734002974497e-04 9.395964337766e+02 1.708930691365e+02 
68 6.750000000000e-03 5.000000000000e-05 1.000000000000e-08 1.319309266541e+22 -2.257084484563e-01 3.097960481702e+02 6.257862681649e+00 8.747020437170e-04 9.352420210962e+02 1.703546165429e+02 
69 6.850000000000e-03 5.000000000000e-05 1.000000000000e-08 1.335876100439e+22 -8.321809484314e-02 3.293477074410e+02 4.509142390659e+00 8.856858545910e-04 9.244640113433e+02 1.705059237414e+02 
70 6.950000000000e-03 5.000000000000e-05 1.000000000000e-08 1.360057422326e+22 -1.524518862376e-01 3.500855636564e+02 4.114068648103e+00 9.017180710024e-04 9.155543637948e+02 1.719193120095e+02 
71 7.050000000000e-03 5.000000000000e-05 1.000000000000e-08 1.364410060266e+22 -1.609090582552e-01 3.688195398205e+02 3.725748117700e+00 9.046038699565e-04 9.167339531986e+02 1.726917188965e+02 
72 7.150000000000e-03 5.000000000000e-05 1.000000000000e-08 1.382083452481e+22 -1.875474949482e-01 3.920802605836e+02 1.539306832663e+00 9.163213289946e-04 9.025255096707e+02 1.722174030110e+02 
73 7.250000000000e-03 5.000000000000e-05 1.000000000000e-08 1.399378354439e+22 2.550908832556e-02 4.065194411757e+02 3.501426456655e+00 9.277878489932e-04 8.907831594147e+02 1.721037893256e+02 
74 7.350000000000e-03 5.000000000000e-05 1.000000000000e-08 1.409571307296e+22 -2.453099651315e-01 4.250855843958e+02 7.194821689524e+00 9.345457767370e-04 8.793864046038e+02 1.711394297699e+02 
75 7.450000000000e-03 5.000000000000e-05 1.000000000000e-08 1.432714409385e+22 -6.572419964762e-02 4.466402648229e+02 4.590194195367e+00 9.498896534221e-04 8.693225231417e+02 1.719585772922e+02 
76 7.550000000000e-03 5.000000000000e-05 1.000000000000e-08 1.453239620539e+22 9.480564048257e-02 4.677743530954e+02 7.120831376576e+00 9.634978684174e-04 8.567889752788e+02 1.719073248412e+02 
77 7.650000000000e-03 5.000000000000e-05 1.000000000000e-08 1.465327653078e+22 8.085014801326e-03 4.859648537622e+02 6.844900950800e+00 9.715122339909e-04 8.444068444237e+02 1.708322154346e+02 
78 7.750000000000e-03 5.000000000000e-05 1.000000000000e-08 1.495231011678e+22 -6.666734916377e-02 5.078847391231e+02 6.133791388505e+00 9.913381607422e-04 8.314442523854e+02 1.716424535893e+02 
79 7.850000000000e-03 5.000000000000e-05 1.000000000000e-08 1.520608257637e+22 -2.110711500843e-01 5.265162917278e+02 4.153411165466e+00 1.008163274813e-03 8.165067457334e+02 1.714195711868e+02 
80 7.950000000000e-03 5.000000000000e-05 1.000000000000e-08 1.555637005114e+22 -1.110396259186e-01 5.502355309434e+02 5.609120506972e+00 1.031387334391e-03 8.015145974024e+02 1.721483975528e+02 
81 8.050000000000e-03 5.000000000000e-05 1.000000000000e-08 1.564757568913e+22 -2.563320204674e-02 5.684506433263e+02 4.338969726355e+00 1.037434268189e-03 7.884070824529e+02 1.703259659722e+02 
82 8.150000000000e-03 5.000000000000e-05 1.000000000000e-08 1.611106854801e+22 -1.206115730620e-01 5.882262705378e+02 5.618120535998e+00 1.068163844733e-03 7.691474317430e+02 1.710870832470e+02 
83 8.250000000000e-03 5.000000000000e-05 1.000000000000e-08 1.638712987821e+22 -1.011877324652e-01 6.101296267025e+02 6.206895560611e+00 1.086466710925e-03 7.533714331112e+02 1.704493411037e+02 
84 8.350000000000e-03 5.000000000000e-05 1.000000000000e-08 1.675776120423e+22 -1.497844626510e-01 6.305846104675e+02 7.230424659199e+00 1.111039567840e-03 7.379249133382e+02 1.707306340263e+02 
85 8.450000000000e-03 5.000000000000e-05 1.000000000000e-08 1.718130231389e+22 1.640445597008e-02 6.472165961356e+02 4.137642942163e+00 1.139120343411e-03 7.179461955329e+02 1.703065144783e+02 
86 8.550000000000e-03 5.000000000000e-05 1.000000000000e-08 1.762305826712e+22 -2.643786656447e-01 6.661933099535e+02 6.314945970520e+00 1.168408763110e-03 7.019958534765e+02 1.708044206682e+02 
87 8.650000000000e-03 5.000000000000e-05 1.000000000000e-08 1.806371029042e+22 -1.385313289622e-01 6.831464010682e+02 4.136650114721e+00 1.197623992255e-03 6.861526524132e+02 1.711240257122e+02 
88 8.750000000000e-03 5.000000000000e-05 1.000000000000e-08 1.863867378639e+22 1.230169372806e-01 7.027615270666e+02 4.414892762934e+00 1.235744072038e-03 6.666671787835e+02 1.715565739488e+02 
89 8.850000000000e-03 5.000000000000e-05 1.000000000000e-08 1.915870362720e+22 -1.604385910513e-01 7.248242549350e+02 6.289634103105e+00 1.270222050483e-03 6.474401613926e+02 1.712572782258e+02 
90 8.950000000000e-03 5.000000000000e-05 1.000000000000e-08 1.984316645684e+22 -3.242292408777e-03 7.491509597812e+02 5.795723463060e+00 1.315601936089e-03 6.238329597637e+02 1.709080719636e+02 
91 9.050000000000e-03 5.000000000000e-05 1.000000000000e-08 2.055677829298e+22 1.040366659475e-01 7.692619672179e+02 5.984867451877e+00 1.362914400825e-03 6.028166729742e+02 1.710895919043e+02 
92 9.150000000000e-03 5.000000000000e-05 1.000000000000e-08 2.141913154277e+22 -1.090882841888e-01 7.914367374976e+02 5.394700471763e+00 1.420088421286e-03 5.775275527248e+02 1.707881951748e+02 
93 9.250000000000e-03 5.000000000000e-05 1.000000000000e-08 2.252227293366e+22 1.381263529982e-02 8.135470947759e+02 2.332506442374e+00 1.493226695502e-03 5.495430128867e+02 1.708823430609e+02 
94 9.350000000000e-03 5.000000000000e-05 1.000000000000e-08 2.351922678061e+22 -3.717381699269e-02 8.352003373316e+02 2.620404685314e+00 1.559324735554e-03 5.254936920349e+02 1.706372445860e+02 
95 9.450000000000e-03 5.000000000000e-05 1.000000000000e-08 2.470140429641e+22 -8.499761147069e-03 8.582204984210e+02 1.753129975823e+00 1.637703104852e-03 5.008809443910e+02 1.708202827054e+02 
96 9.550000000000e-03 5.000000000000e-05 1.000000000000e-08 2.610631281403e+22 1.853095533301e-03 8.805174927496e+02 2.409299995322e+00 1.730848539570e-03 4.748901807314e+02 1.711677768538e+02 
97 9.650000000000e-03 5.000000000000e-05 1.000000000000e-08 2.770159667342e+22 -6.230957312119e-02 9.035543469030e+02 1.844245579196e+00 1.836615859448e-03 4.461432378189e+02 1.706327535817e+02 
98 9.750000000000e-03 5.000000000000e-05 1.000000000000e-08 2.991721029136e+22 -4.332054233448e-03 9.283689835360e+02 2.437266251711e+00 1.983511042317e-03 4.151857741687e+02 1.714931751866e+02 
99 9.850000000000e-03 5.000000000000e-05 1.000000000000e-08 3.222652653162e+22 -6.629018187090e-02 9.521437476787e+02 3.443303874845e+00 2.136618709046e-03 3.842410589415e+02 1.709623786690e+02 
100 9.950000000000e-03 5.000000000000e-05 1.000000000000e-08 3.556073655922e+22 9.788346239497e-04 9.758049830062e+02 2.791912410109e+00 2.357676833876e-03 3.477931604957e+02 1.707556441117e+02 
