<?xml version="1.0"?>
<VTKFile type="UnstructuredGrid" version="0.1" byte_order="LittleEndian">
  <UnstructuredGrid>
    <FieldData><DataArray type="Int32" Name="TIME_STEP" NumberOfTuples="1" format="ascii">160000</DataArray></FieldData>
    <Piece NumberOfPoints="202" NumberOfCells="100">
      <Points>
        <DataArray type="Float64" NumberOfComponents="3" format="ascii">
          6.776263578034e-21 -4.999500000000e-01 0.000000000000e+00 1.000000000000e-04 -4.999500000000e-01 0.000000000000e+00 2.000000000000e-04 -4.999500000000e-01 0.000000000000e+00 3.000000000000e-04 -4.999500000000e-01 0.000000000000e+00 4.000000000000e-04 -4.999500000000e-01 0.000000000000e+00 5.000000000000e-04 -4.999500000000e-01 0.000000000000e+00 6.000000000000e-04 -4.999500000000e-01 0.000000000000e+00 7.000000000000e-04 -4.999500000000e-01 0.000000000000e+00 8.000000000000e-04 -4.999500000000e-01 0.000000000000e+00 9.000000000000e-04 -4.999500000000e-01 0.000000000000e+00 1.000000000000e-03 -4.999500000000e-01 0.000000000000e+00 1.100000000000e-03 -4.999500000000e-01 0.000000000000e+00 1.200000000000e-03 -4.999500000000e-01 0.000000000000e+00 1.300000000000e-03 -4.999500000000e-01 0.000000000000e+00 1.400000000000e-03 -4.999500000000e-01 0.000000000000e+00 1.500000000000e-03 -4.999500000000e-01 0.000000000000e+00 1.600000000000e-03 -4.999500000000e-01 0.000000000000e+00 1.700000000000e-03 -4.999500000000e-01 0.000000000000e+00 1.800000000000e-03 -4.999500000000e-01 0.000000000000e+00 1.900000000000e-03 -4.999500000000e-01 0.000000000000e+00 2.000000000000e-03 -4.999500000000e-01 0.000000000000e+00 2.100000000000e-03 -4.999500000000e-01 0.000000000000e+00 2.200000000000e-03 -4.999500000000e-01 0.000000000000e+00 2.300000000000e-03 -4.999500000000e-01 0.000000000000e+00 2.400000000000e-03 -4.999500000000e-01 0.000000000000e+00 2.500000000000e-03 -4.999500000000e-01 0.000000000000e+00 2.600000000000e-03 -4.999500000000e-01 0.000000000000e+00 2.700000000000e-03 -4.999500000000e-01 0.000000000000e+00 2.800000000000e-03 -4.999500000000e-01 0.000000000000e+00 2.900000000000e-03 -4.999500000000e-01 0.000000000000e+00 3.000000000000e-03 -4.999500000000e-01 0.000000000000e+00 3.100000000000e-03 -4.999500000000e-01 0.000000000000e+00 3.200000000000e-03 -4.999500000000e-01 0.000000000000e+00 3.300000000000e-03 -4.999500000000e-01 0.000000000000e+00 3.400000000000e-03 -4.999500000000e-01 0.000000000000e+00 3.500000000000e-03 -4.999500000000e-01 0.000000000000e+00 3.600000000000e-03 -4.999500000000e-01 0.000000000000e+00 3.700000000000e-03 -4.999500000000e-01 0.000000000000e+00 3.800000000000e-03 -4.999500000000e-01 0.000000000000e+00 3.900000000000e-03 -4.999500000000e-01 0.000000000000e+00 4.000000000000e-03 -4.999500000000e-01 0.000000000000e+00 4.100000000000e-03 -4.999500000000e-01 0.000000000000e+00 4.200000000000e-03 -4.999500000000e-01 0.000000000000e+00 4.300000000000e-03 -4.999500000000e-01 0.000000000000e+00 4.400000000000e-03 -4.999500000000e-01 0.000000000000e+00 4.500000000000e-03 -4.999500000000e-01 0.000000000000e+00 4.600000000000e-03 -4.999500000000e-01 0.000000000000e+00 4.700000000000e-03 -4.999500000000e-01 0.000000000000e+00 4.800000000000e-03 -4.999500000000e-01 0.000000000000e+00 4.900000000000e-03 -4.999500000000e-01 0.000000000000e+00 5.000000000000e-03 -4.999500000000e-01 0.000000000000e+00 5.100000000000e-03 -4.999500000000e-01 0.000000000000e+00 5.200000000000e-03 -4.999500000000e-01 0.000000000000e+00 5.300000000000e-03 -4.999500000000e-01 0.000000000000e+00 5.400000000000e-03 -4.999500000000e-01 0.000000000000e+00 5.500000000000e-03 -4.999500000000e-01 0.000000000000e+00 5.600000000000e-03 -4.999500000000e-01 0.000000000000e+00 5.700000000000e-03 -4.999500000000e-01 0.000000000000e+00 5.800000000000e-03 -4.999500000000e-01 0.000000000000e+00 5.900000000000e-03 -4.999500000000e-01 0.000000000000e+00 6.000000000000e-03 -4.999500000000e-01 0.000000000000e+00 6.100000000000e-03 -4.999500000000e-01 0.000000000000e+00 6.200000000000e-03 -4.999500000000e-01 0.000000000000e+00 6.300000000000e-03 -4.999500000000e-01 0.000000000000e+00 6.400000000000e-03 -4.999500000000e-01 0.000000000000e+00 6.500000000000e-03 -4.999500000000e-01 0.000000000000e+00 6.600000000000e-03 -4.999500000000e-01 0.000000000000e+00 6.700000000000e-03 -4.999500000000e-01 0.000000000000e+00 6.800000000000e-03 -4.999500000000e-01 0.000000000000e+00 6.900000000000e-03 -4.999500000000e-01 0.000000000000e+00 7.000000000000e-03 -4.999500000000e-01 0.000000000000e+00 7.100000000000e-03 -4.999500000000e-01 0.000000000000e+00 7.200000000000e-03 -4.999500000000e-01 0.000000000000e+00 7.300000000000e-03 -4.999500000000e-01 0.000000000000e+00 7.400000000000e-03 -4.999500000000e-01 0.000000000000e+00 7.500000000000e-03 -4.999500000000e-01 0.000000000000e+00 7.600000000000e-03 -4.999500000000e-01 0.000000000000e+00 7.700000000000e-03 -4.999500000000e-01 0.000000000000e+00 7.800000000000e-03 -4.999500000000e-01 0.000000000000e+00 7.900000000000e-03 -4.999500000000e-01 0.000000000000e+00 8.000000000000e-03 -4.999500000000e-01 0.000000000000e+00 8.100000000000e-03 -4.999500000000e-01 0.000000000000e+00 8.200000000000e-03 -4.999500000000e-01 0.000000000000e+00 8.300000000000e-03 -4.999500000000e-01 0.000000000000e+00 8.400000000000e-03 -4.999500000000e-01 0.000000000000e+00 8.500000000000e-03 -4.999500000000e-01 0.000000000000e+00 8.600000000000e-03 -4.999500000000e-01 0.000000000000e+00 8.700000000000e-03 -4.999500000000e-01 0.000000000000e+00 8.800000000000e-03 -4.999500000000e-01 0.000000000000e+00 8.900000000000e-03 -4.999500000000e-01 0.000000000000e+00 9.000000000000e-03 -4.999500000000e-01 0.000000000000e+00 9.100000000000e-03 -4.999500000000e-01 0.000000000000e+00 9.200000000000e-03 -4.999500000000e-01 0.000000000000e+00 9.300000000000e-03 -4.999500000000e-01 0.000000000000e+00 9.400000000000e-03 -4.999500000000e-01 0.000000000000e+00 9.500000000000e-03 -4.999500000000e-01 0.000000000000e+00 9.600000000000e-03 -4.999500000000e-01 0.000000000000e+00 9.700000000000e-03 -4.999500000000e-01 0.000000000000e+00 9.800000000000e-03 -4.999500000000e-01 0.000000000000e+00 9.900000000000e-03 -4.999500000000e-01 0.000000000000e+00 1.000000000000e-02 -4.999500000000e-01 0.000000000000e+00 6.776263578034e-21 5.000500000000e-01 0.000000000000e+00 1.000000000000e-04 5.000500000000e-01 0.000000000000e+00 2.000000000000e-04 5.000500000000e-01 0.000000000000e+00 3.000000000000e-04 5.000500000000e-01 0.000000000000e+00 4.000000000000e-04 5.000500000000e-01 0.000000000000e+00 5.000000000000e-04 5.000500000000e-01 0.000000000000e+00 6.000000000000e-04 5.000500000000e-01 0.000000000000e+00 7.000000000000e-04 5.000500000000e-01 0.000000000000e+00 8.000000000000e-04 5.000500000000e-01 0.000000000000e+00 9.000000000000e-04 5.000500000000e-01 0.000000000000e+00 1.000000000000e-03 5.000500000000e-01 0.000000000000e+00 1.100000000000e-03 5.000500000000e-01 0.000000000000e+00 1.200000000000e-03 5.000500000000e-01 0.000000000000e+00 1.300000000000e-03 5.000500000000e-01 0.000000000000e+00 1.400000000000e-03 5.000500000000e-01 0.000000000000e+00 1.500000000000e-03 5.000500000000e-01 0.000000000000e+00 1.600000000000e-03 5.000500000000e-01 0.000000000000e+00 1.700000000000e-03 5.000500000000e-01 0.000000000000e+00 1.800000000000e-03 5.000500000000e-01 0.000000000000e+00 1.900000000000e-03 5.000500000000e-01 0.000000000000e+00 2.000000000000e-03 5.000500000000e-01 0.000000000000e+00 2.100000000000e-03 5.000500000000e-01 0.000000000000e+00 2.200000000000e-03 5.000500000000e-01 0.000000000000e+00 2.300000000000e-03 5.000500000000e-01 0.000000000000e+00 2.400000000000e-03 5.000500000000e-01 0.000000000000e+00 2.500000000000e-03 5.000500000000e-01 0.000000000000e+00 2.600000000000e-03 5.000500000000e-01 0.000000000000e+00 2.700000000000e-03 5.000500000000e-01 0.000000000000e+00 2.800000000000e-03 5.000500000000e-01 0.000000000000e+00 2.900000000000e-03 5.000500000000e-01 0.000000000000e+00 3.000000000000e-03 5.000500000000e-01 0.000000000000e+00 3.100000000000e-03 5.000500000000e-01 0.000000000000e+00 3.200000000000e-03 5.000500000000e-01 0.000000000000e+00 3.300000000000e-03 5.000500000000e-01 0.000000000000e+00 3.400000000000e-03 5.000500000000e-01 0.000000000000e+00 3.500000000000e-03 5.000500000000e-01 0.000000000000e+00 3.600000000000e-03 5.000500000000e-01 0.000000000000e+00 3.700000000000e-03 5.000500000000e-01 0.000000000000e+00 3.800000000000e-03 5.000500000000e-01 0.000000000000e+00 3.900000000000e-03 5.000500000000e-01 0.000000000000e+00 4.000000000000e-03 5.000500000000e-01 0.000000000000e+00 4.100000000000e-03 5.000500000000e-01 0.000000000000e+00 4.200000000000e-03 5.000500000000e-01 0.000000000000e+00 4.300000000000e-03 5.000500000000e-01 0.000000000000e+00 4.400000000000e-03 5.000500000000e-01 0.000000000000e+00 4.500000000000e-03 5.000500000000e-01 0.000000000000e+00 4.600000000000e-03 5.000500000000e-01 0.000000000000e+00 4.700000000000e-03 5.000500000000e-01 0.000000000000e+00 4.800000000000e-03 5.000500000000e-01 0.000000000000e+00 4.900000000000e-03 5.000500000000e-01 0.000000000000e+00 5.000000000000e-03 5.000500000000e-01 0.000000000000e+00 5.100000000000e-03 5.000500000000e-01 0.000000000000e+00 5.200000000000e-03 5.000500000000e-01 0.000000000000e+00 5.300000000000e-03 5.000500000000e-01 0.000000000000e+00 5.400000000000e-03 5.000500000000e-01 0.000000000000e+00 5.500000000000e-03 5.000500000000e-01 0.000000000000e+00 5.600000000000e-03 5.000500000000e-01 0.000000000000e+00 5.700000000000e-03 5.000500000000e-01 0.000000000000e+00 5.800000000000e-03 5.000500000000e-01 0.000000000000e+00 5.900000000000e-03 5.000500000000e-01 0.000000000000e+00 6.000000000000e-03 5.000500000000e-01 0.000000000000e+00 6.100000000000e-03 5.000500000000e-01 0.000000000000e+00 6.200000000000e-03 5.000500000000e-01 0.000000000000e+00 6.300000000000e-03 5.000500000000e-01 0.000000000000e+00 6.400000000000e-03 5.000500000000e-01 0.000000000000e+00 6.500000000000e-03 5.000500000000e-01 0.000000000000e+00 6.600000000000e-03 5.000500000000e-01 0.000000000000e+00 6.700000000000e-03 5.000500000000e-01 0.000000000000e+00 6.800000000000e-03 5.000500000000e-01 0.000000000000e+00 6.900000000000e-03 5.000500000000e-01 0.000000000000e+00 7.000000000000e-03 5.000500000000e-01 0.000000000000e+00 7.100000000000e-03 5.000500000000e-01 0.000000000000e+00 7.200000000000e-03 5.000500000000e-01 0.000000000000e+00 7.300000000000e-03 5.000500000000e-01 0.000000000000e+00 7.400000000000e-03 5.000500000000e-01 0.000000000000e+00 7.500000000000e-03 5.000500000000e-01 0.000000000000e+00 7.600000000000e-03 5.000500000000e-01 0.000000000000e+00 7.700000000000e-03 5.000500000000e-01 0.000000000000e+00 7.800000000000e-03 5.000500000000e-01 0.000000000000e+00 7.900000000000e-03 5.000500000000e-01 0.000000000000e+00 8.000000000000e-03 5.000500000000e-01 0.000000000000e+00 8.100000000000e-03 5.000500000000e-01 0.000000000000e+00 8.200000000000e-03 5.000500000000e-01 0.000000000000e+00 8.300000000000e-03 5.000500000000e-01 0.000000000000e+00 8.400000000000e-03 5.000500000000e-01 0.000000000000e+00 8.500000000000e-03 5.000500000000e-01 0.000000000000e+00 8.600000000000e-03 5.000500000000e-01 0.000000000000e+00 8.700000000000e-03 5.000500000000e-01 0.000000000000e+00 8.800000000000e-03 5.000500000000e-01 0.000000000000e+00 8.900000000000e-03 5.000500000000e-01 0.000000000000e+00 9.000000000000e-03 5.000500000000e-01 0.000000000000e+00 9.100000000000e-03 5.000500000000e-01 0.000000000000e+00 9.200000000000e-03 5.000500000000e-01 0.000000000000e+00 9.300000000000e-03 5.000500000000e-01 0.000000000000e+00 9.400000000000e-03 5.000500000000e-01 0.000000000000e+00 9.500000000000e-03 5.000500000000e-01 0.000000000000e+00 9.600000000000e-03 5.000500000000e-01 0.000000000000e+00 9.700000000000e-03 5.000500000000e-01 0.000000000000e+00 9.800000000000e-03 5.000500000000e-01 0.000000000000e+00 9.900000000000e-03 5.000500000000e-01 0.000000000000e+00 1.000000000000e-02 5.000500000000e-01 0.000000000000e+00
        </DataArray>
      </Points>
      <Cells>
        <DataArray type="Int32" Name="connectivity" format="ascii">
          0 1 102 101 1 2 103 102 2 3 104 103 3 4 105 104 4 5 106 105 5 6 107 106 6 7 108 107 7 8 109 108 8 9 110 109 9 10 111 110 10 11 112 111 11 12 113 112 12 13 114 113 13 14 115 114 14 15 116 115 15 16 117 116 16 17 118 117 17 18 119 118 18 19 120 119 19 20 121 120 20 21 122 121 21 22 123 122 22 23 124 123 23 24 125 124 24 25 126 125 25 26 127 126 26 27 128 127 27 28 129 128 28 29 130 129 29 30 131 130 30 31 132 131 31 32 133 132 32 33 134 133 33 34 135 134 34 35 136 135 35 36 137 136 36 37 138 137 37 38 139 138 38 39 140 139 39 40 141 140 40 41 142 141 41 42 143 142 42 43 144 143 43 44 145 144 44 45 146 145 45 46 147 146 46 47 148 147 47 48 149 148 48 49 150 149 49 50 151 150 50 51 152 151 51 52 153 152 52 53 154 153 53 54 155 154 54 55 156 155 55 56 157 156 56 57 158 157 57 58 159 158 58 59 160 159 59 60 161 160 60 61 162 161 61 62 163 162 62 63 164 163 63 64 165 164 64 65 166 165 65 66 167 166 66 67 168 167 67 68 169 168 68 69 170 169 69 70 171 170 70 71 172 171 71 72 173 172 72 73 174 173 73 74 175 174 74 75 176 175 75 76 177 176 76 77 178 177 77 78 179 178 78 79 180 179 79 80 181 180 80 81 182 181 81 82 183 182 82 83 184 183 83 84 185 184 84 85 186 185 85 86 187 186 86 87 188 187 87 88 189 188 88 89 190 189 89 90 191 190 90 91 192 191 91 92 193 192 92 93 194 193 93 94 195 194 94 95 196 195 95 96 197 196 96 97 198 197 97 98 199 198 98 99 200 199 99 100 201 200
        </DataArray>
        <DataArray type="Int32" Name="offsets" format="ascii">
          4 8 12 16 20 24 28 32 36 40 44 48 52 56 60 64 68 72 76 80 84 88 92 96 100 104 108 112 116 120 124 128 132 136 140 144 148 152 156 160 164 168 172 176 180 184 188 192 196 200 204 208 212 216 220 224 228 232 236 240 244 248 252 256 260 264 268 272 276 280 284 288 292 296 300 304 308 312 316 320 324 328 332 336 340 344 348 352 356 360 364 368 372 376 380 384 388 392 396 400
        </DataArray>
        <DataArray type="UInt8" Name="types" format="ascii">
          9 9 9 9 9 9 9 9 9 9 9 9 9 9 9 9 9 9 9 9 9 9 9 9 9 9 9 9 9 9 9 9 9 9 9 9 9 9 9 9 9 9 9 9 9 9 9 9 9 9 9 9 9 9 9 9 9 9 9 9 9 9 9 9 9 9 9 9 9 9 9 9 9 9 9 9 9 9 9 9 9 9 9 9 9 9 9 9 9 9 9 9 9 9 9 9 9 9 9 9
        </DataArray>
      </Cells>
      <CellData>
        <DataArray type="Float64" Name="id" format="ascii">
          1.000000000000e+00 2.000000000000e+00 3.000000000000e+00 4.000000000000e+00 5.000000000000e+00 6.000000000000e+00 7.000000000000e+00 8.000000000000e+00 9.000000000000e+00 1.000000000000e+01 1.100000000000e+01 1.200000000000e+01 1.300000000000e+01 1.400000000000e+01 1.500000000000e+01 1.600000000000e+01 1.700000000000e+01 1.800000000000e+01 1.900000000000e+01 2.000000000000e+01 2.100000000000e+01 2.200000000000e+01 2.300000000000e+01 2.400000000000e+01 2.500000000000e+01 2.600000000000e+01 2.700000000000e+01 2.800000000000e+01 2.900000000000e+01 3.000000000000e+01 3.100000000000e+01 3.200000000000e+01 3.300000000000e+01 3.400000000000e+01 3.500000000000e+01 3.600000000000e+01 3.700000000000e+01 3.800000000000e+01 3.900000000000e+01 4.000000000000e+01 4.100000000000e+01 4.200000000000e+01 4.300000000000e+01 4.400000000000e+01 4.500000000000e+01 4.600000000000e+01 4.700000000000e+01 4.800000000000e+01 4.900000000000e+01 5.000000000000e+01 5.100000000000e+01 5.200000000000e+01 5.300000000000e+01 5.400000000000e+01 5.500000000000e+01 5.600000000000e+01 5.700000000000e+01 5.800000000000e+01 5.900000000000e+01 6.000000000000e+01 6.100000000000e+01 6.200000000000e+01 6.300000000000e+01 6.400000000000e+01 6.500000000000e+01 6.600000000000e+01 6.700000000000e+01 6.800000000000e+01 6.900000000000e+01 7.000000000000e+01 7.100000000000e+01 7.200000000000e+01 7.300000000000e+01 7.400000000000e+01 7.500000000000e+01 7.600000000000e+01 7.700000000000e+01 7.800000000000e+01 7.900000000000e+01 8.000000000000e+01 8.100000000000e+01 8.200000000000e+01 8.300000000000e+01 8.400000000000e+01 8.500000000000e+01 8.600000000000e+01 8.700000000000e+01 8.800000000000e+01 8.900000000000e+01 9.000000000000e+01 9.100000000000e+01 9.200000000000e+01 9.300000000000e+01 9.400000000000e+01 9.500000000000e+01 9.600000000000e+01 9.700000000000e+01 9.800000000000e+01 9.900000000000e+01 1.000000000000e+02
        </DataArray>
        <DataArray type="Float64" Name="vol" format="ascii">
          1.000000000000e-08 1.000000000000e-08 1.000000000000e-08 1.000000000000e-08 1.000000000000e-08 1.000000000000e-08 1.000000000000e-08 1.000000000000e-08 1.000000000000e-08 1.000000000000e-08 1.000000000000e-08 1.000000000000e-08 1.000000000000e-08 1.000000000000e-08 1.000000000000e-08 1.000000000000e-08 1.000000000000e-08 1.000000000000e-08 1.000000000000e-08 1.000000000000e-08 1.000000000000e-08 1.000000000000e-08 1.000000000000e-08 1.000000000000e-08 1.000000000000e-08 1.000000000000e-08 1.000000000000e-08 1.000000000000e-08 1.000000000000e-08 1.000000000000e-08 1.000000000000e-08 1.000000000000e-08 1.000000000000e-08 1.000000000000e-08 1.000000000000e-08 1.000000000000e-08 1.000000000000e-08 1.000000000000e-08 1.000000000000e-08 1.000000000000e-08 1.000000000000e-08 1.000000000000e-08 1.000000000000e-08 1.000000000000e-08 1.000000000000e-08 1.000000000000e-08 1.000000000000e-08 1.000000000000e-08 1.000000000000e-08 1.000000000000e-08 1.000000000000e-08 1.000000000000e-08 1.000000000000e-08 1.000000000000e-08 1.000000000000e-08 1.000000000000e-08 1.000000000000e-08 1.000000000000e-08 1.000000000000e-08 1.000000000000e-08 1.000000000000e-08 1.000000000000e-08 1.000000000000e-08 1.000000000000e-08 1.000000000000e-08 1.000000000000e-08 1.000000000000e-08 1.000000000000e-08 1.000000000000e-08 1.000000000000e-08 1.000000000000e-08 1.000000000000e-08 1.000000000000e-08 1.000000000000e-08 1.000000000000e-08 1.000000000000e-08 1.000000000000e-08 1.000000000000e-08 1.000000000000e-08 1.000000000000e-08 1.000000000000e-08 1.000000000000e-08 1.000000000000e-08 1.000000000000e-08 1.000000000000e-08 1.000000000000e-08 1.000000000000e-08 1.000000000000e-08 1.000000000000e-08 1.000000000000e-08 1.000000000000e-08 1.000000000000e-08 1.000000000000e-08 1.000000000000e-08 1.000000000000e-08 1.000000000000e-08 1.000000000000e-08 1.000000000000e-08 1.000000000000e-08 1.000000000000e-08
        </DataArray>
        <DataArray type="Float64" Name="f_avg[1]" format="ascii">
          3.532906898192e+22 3.226729308624e+22 2.977974473324e+22 2.763034062599e+22 2.580801518131e+22 2.446235090231e+22 2.318670732061e+22 2.197824575928e+22 2.116422886922e+22 2.042943209239e+22 1.971747615112e+22 1.912747818111e+22 1.864322092627e+22 1.805811178873e+22 1.760789237284e+22 1.726493814677e+22 1.690942014693e+22 1.653476736195e+22 1.616163905161e+22 1.584286614742e+22 1.556648940867e+22 1.539919145888e+22 1.504924567669e+22 1.480561885867e+22 1.462396982002e+22 1.457721050302e+22 1.432354317961e+22 1.410341429830e+22 1.390893864542e+22 1.388825310159e+22 1.371674970451e+22 1.359350381502e+22 1.350445346876e+22 1.338911907698e+22 1.323625106817e+22 1.320334344317e+22 1.301068138944e+22 1.287723729028e+22 1.281683655365e+22 1.271908618833e+22 1.265361263091e+22 1.259899438430e+22 1.257005565017e+22 1.259465751679e+22 1.254508580692e+22 1.255864837441e+22 1.254448127387e+22 1.251575281211e+22 1.255120998953e+22 1.246541886492e+22 1.238228242891e+22 1.243989705671e+22 1.245829588858e+22 1.246749530452e+22 1.249795851329e+22 1.249911501129e+22 1.259523576579e+22 1.248983674322e+22 1.258727170000e+22 1.271632636355e+22 1.283418402370e+22 1.279257637963e+22 1.291127512924e+22 1.282445892686e+22 1.299280823848e+22 1.312435988635e+22 1.317345848340e+22 1.319309266541e+22 1.335876100439e+22 1.360057422326e+22 1.364410060266e+22 1.382083452481e+22 1.399378354439e+22 1.409571307296e+22 1.432714409385e+22 1.453239620539e+22 1.465327653078e+22 1.495231011678e+22 1.520608257637e+22 1.555637005114e+22 1.564757568913e+22 1.611106854801e+22 1.638712987821e+22 1.675776120423e+22 1.718130231389e+22 1.762305826712e+22 1.806371029042e+22 1.863867378639e+22 1.915870362720e+22 1.984316645684e+22 2.055677829298e+22 2.141913154277e+22 2.252227293366e+22 2.351922678061e+22 2.470140429641e+22 2.610631281403e+22 2.770159667342e+22 2.991721029136e+22 3.222652653162e+22 3.556073655922e+22
        </DataArray>
        <DataArray type="Float64" Name="f_avg[2]" format="ascii">
          -4.942858898988e-02 -8.324062838977e-02 6.320600380697e-02 -6.619908044159e-03 1.147792840890e-02 -1.355474326446e-01 -7.901094190133e-03 7.781245160413e-02 -4.385318508355e-02 6.442044654333e-04 6.495864959988e-02 7.269572627997e-02 2.203147852703e-01 1.236553931649e-01 1.254763940634e-01 1.979978905833e-01 -4.002601892832e-02 6.372273546862e-02 -1.108193534627e-01 3.576679845239e-01 1.858725946362e-01 -2.748446224954e-01 2.561633266770e-01 9.051360035418e-02 1.536544895868e-01 1.802541839675e-01 -1.769521969588e-01 -1.055969511829e-01 1.056304131585e-01 -6.457810379405e-02 1.980821458646e-02 1.524952016000e-01 -1.045778477188e-01 4.709730789601e-02 -1.339243340176e-01 -1.957212934406e-01 1.301048028429e-02 1.746393982255e-01 -1.473176175112e-01 2.411192184354e-02 2.630708140898e-02 -2.050598194385e-01 1.746535017414e-01 -1.307582793014e-01 -1.398940480617e-01 1.047327226939e-01 -4.584738219804e-02 1.620180489114e-01 -2.219738734211e-01 3.646210557345e-03 1.484709207493e-01 8.271827055411e-02 2.211991199814e-01 -2.042260142645e-01 -1.886470276735e-02 9.584718988815e-02 6.378449765154e-02 -6.040446182795e-02 -1.158862252441e-01 -1.299695735213e-01 7.432848958095e-02 -1.367331405645e-01 -1.592190948847e-01 2.303817453711e-02 -9.571905593660e-02 6.909689270710e-02 -4.837470031065e-01 -2.257084484563e-01 -8.321809484314e-02 -1.524518862376e-01 -1.609090582552e-01 -1.875474949482e-01 2.550908832556e-02 -2.453099651315e-01 -6.572419964762e-02 9.480564048257e-02 8.085014801326e-03 -6.666734916377e-02 -2.110711500843e-01 -1.110396259186e-01 -2.563320204674e-02 -1.206115730620e-01 -1.011877324652e-01 -1.497844626510e-01 1.640445597008e-02 -2.643786656447e-01 -1.385313289622e-01 1.230169372806e-01 -1.604385910513e-01 -3.242292408777e-03 1.040366659475e-01 -1.090882841888e-01 1.381263529982e-02 -3.717381699269e-02 -8.499761147069e-03 1.853095533301e-03 -6.230957312119e-02 -4.332054233448e-03 -6.629018187090e-02 9.788346239497e-04
        </DataArray>
        <DataArray type="Float64" Name="f_avg[3]" format="ascii">
          -9.750040509259e+02 -9.504791083028e+02 -9.263253423566e+02 -9.047187978839e+02 -8.847551319492e+02 -8.650122672876e+02 -8.417316741109e+02 -8.191770433787e+02 -7.972930676736e+02 -7.761453742274e+02 -7.546720484032e+02 -7.315552854008e+02 -7.084987786258e+02 -6.874061851427e+02 -6.676065732913e+02 -6.461306630198e+02 -6.222426207780e+02 -6.039421561583e+02 -5.829180914476e+02 -5.613808602083e+02 -5.446746349146e+02 -5.214475657440e+02 -4.972167799984e+02 -4.798803632232e+02 -4.602232274455e+02 -4.396021662418e+02 -4.246998370530e+02 -4.061431263068e+02 -3.880844977987e+02 -3.714696318860e+02 -3.561903549439e+02 -3.384879219615e+02 -3.190387214067e+02 -3.009659873721e+02 -2.826464198790e+02 -2.636438794100e+02 -2.448819544132e+02 -2.270721479260e+02 -2.064698748657e+02 -1.923272933471e+02 -1.701984489745e+02 -1.529705930611e+02 -1.355645352178e+02 -1.146869760719e+02 -9.656416106614e+01 -8.243011805590e+01 -6.523298291686e+01 -4.734242234337e+01 -2.816967586824e+01 -1.314396435745e+01 3.873017405884e+00 2.260706704621e+01 3.930280375599e+01 5.800206703653e+01 7.618125970878e+01 9.339322993144e+01 1.128057890129e+02 1.288842974203e+02 1.419642774784e+02 1.579706419141e+02 1.786376701298e+02 1.963484524906e+02 2.148285608412e+02 2.337179658477e+02 2.493158946926e+02 2.668082900251e+02 2.920793137574e+02 3.097960481702e+02 3.293477074410e+02 3.500855636564e+02 3.688195398205e+02 3.920802605836e+02 4.065194411757e+02 4.250855843958e+02 4.466402648229e+02 4.677743530954e+02 4.859648537622e+02 5.078847391231e+02 5.265162917278e+02 5.502355309434e+02 5.684506433263e+02 5.882262705378e+02 6.101296267025e+02 6.305846104675e+02 6.472165961356e+02 6.661933099535e+02 6.831464010682e+02 7.027615270666e+02 7.248242549350e+02 7.491509597812e+02 7.692619672179e+02 7.914367374976e+02 8.135470947759e+02 8.352003373316e+02 8.582204984210e+02 8.805174927496e+02 9.035543469030e+02 9.283689835360e+02 9.521437476787e+02 9.758049830062e+02
        </DataArray>
        <DataArray type="Float64" Name="f_avg[4]" format="ascii">
          1.419078583746e+00 1.018314111329e+00 -9.721738123221e-01 -2.918035938962e-01 1.916492264634e+00 3.346803560775e+00 1.678904357334e+00 1.789198911038e+00 2.157687681007e+00 4.159968667291e+00 2.731578314117e+00 3.449312452093e+00 3.557290125039e+00 4.264079763295e+00 3.722718916188e+00 4.362642082944e+00 6.182224840799e+00 6.304213377468e+00 7.764310393372e+00 1.044842054765e+01 1.349002450327e+01 1.044718367302e+01 7.836819649957e+00 9.828966025561e+00 1.106225620051e+01 1.188261221418e+01 1.035612658092e+01 1.113554332055e+01 1.285957678595e+01 1.199342610000e+01 8.512514125627e+00 9.571932590740e+00 1.026380986045e+01 1.221573775872e+01 1.167321482988e+01 1.152393753698e+01 1.330031981238e+01 1.433799281431e+01 1.266624138899e+01 1.332245430297e+01 1.337385404452e+01 1.157065567807e+01 1.546485369347e+01 1.549481863819e+01 1.651879903248e+01 1.430467665860e+01 1.246986037294e+01 1.357380404424e+01 9.895478399574e+00 8.283537239173e+00 9.951317313383e+00 9.774333925467e+00 8.208824079143e+00 5.641222490934e+00 9.209270355553e+00 9.195918020275e+00 5.354333659045e+00 5.215545904261e+00 4.357682323311e+00 6.598307667749e+00 5.751815911667e+00 8.618732852640e+00 7.554469523601e+00 5.385591469212e+00 7.535719516358e+00 6.098154794198e+00 7.329393987637e+00 6.257862681649e+00 4.509142390659e+00 4.114068648103e+00 3.725748117700e+00 1.539306832663e+00 3.501426456655e+00 7.194821689524e+00 4.590194195367e+00 7.120831376576e+00 6.844900950800e+00 6.133791388505e+00 4.153411165466e+00 5.609120506972e+00 4.338969726355e+00 5.618120535998e+00 6.206895560611e+00 7.230424659199e+00 4.137642942163e+00 6.314945970520e+00 4.136650114721e+00 4.414892762934e+00 6.289634103105e+00 5.795723463060e+00 5.984867451877e+00 5.394700471763e+00 2.332506442374e+00 2.620404685314e+00 1.753129975823e+00 2.409299995322e+00 1.844245579196e+00 2.437266251711e+00 3.443303874845e+00 2.791912410109e+00
        </DataArray>
        <DataArray type="Float64" Name="f_avg[5]" format="ascii">
          2.342317273501e-03 2.139321531617e-03 1.974397075814e-03 1.831891583503e-03 1.711071406521e-03 1.621853864823e-03 1.537278695357e-03 1.457157693840e-03 1.403188374029e-03 1.354471347725e-03 1.307268668819e-03 1.268151803408e-03 1.236045547411e-03 1.197252811593e-03 1.167403264320e-03 1.144665399131e-03 1.121094555742e-03 1.096255076097e-03 1.071516669122e-03 1.050382025574e-03 1.032058247795e-03 1.020966393723e-03 9.977649883646e-04 9.816125303301e-04 9.695691990671e-04 9.664690563502e-04 9.496509128081e-04 9.350563679771e-04 9.221626321914e-04 9.207911806354e-04 9.094205054088e-04 9.012493029356e-04 8.953452649789e-04 8.876985948035e-04 8.775634458200e-04 8.753816702823e-04 8.626081761197e-04 8.537608323457e-04 8.497562635073e-04 8.432754142862e-04 8.389345174296e-04 8.353133276792e-04 8.333946896065e-04 8.350257933632e-04 8.317391889988e-04 8.326383872236e-04 8.316991084578e-04 8.297944114428e-04 8.321452223058e-04 8.264572707441e-04 8.209453250366e-04 8.247651748599e-04 8.259850174129e-04 8.265949386894e-04 8.286146494308e-04 8.286913252484e-04 8.350641312720e-04 8.280761760753e-04 8.345361137097e-04 8.430924379032e-04 8.509064007716e-04 8.481478139695e-04 8.560175410688e-04 8.502616268507e-04 8.614231862110e-04 8.701450604653e-04 8.734002974497e-04 8.747020437170e-04 8.856858545910e-04 9.017180710024e-04 9.046038699565e-04 9.163213289946e-04 9.277878489932e-04 9.345457767370e-04 9.498896534221e-04 9.634978684174e-04 9.715122339909e-04 9.913381607422e-04 1.008163274813e-03 1.031387334391e-03 1.037434268189e-03 1.068163844733e-03 1.086466710925e-03 1.111039567840e-03 1.139120343411e-03 1.168408763110e-03 1.197623992255e-03 1.235744072038e-03 1.270222050483e-03 1.315601936089e-03 1.362914400825e-03 1.420088421286e-03 1.493226695502e-03 1.559324735554e-03 1.637703104852e-03 1.730848539570e-03 1.836615859448e-03 1.983511042317e-03 2.136618709046e-03 2.357676833876e-03
        </DataArray>
        <DataArray type="Float64" Name="f_avg[6]" format="ascii">