ITEM: TIMESTEP
160000
ITEM: NUMBER OF CELLS
100
ITEM: BOX BOUNDS ss pp pp
0 0.01
0 0.0001
-0.5 0.5
ITEM: CELLS id xc yc vol f_avg[1] f_avg[2] f_avg[3] f_avg[4] f_avg[5] f_avg[6] f_avg[7] 
1 5.000000000000e-05 5.000000000000e-05 1.000000000000e-08 3.546638209258e+22 -4.476358312742e-03 -9.747937925498e+02 8.447717872071e-01 2.351421132738e-03 3.495117180500e+02 1.711440922028e+02 
2 1.500000000000e-04 5.000000000000e-05 1.000000000000e-08 3.229963297586e+22 -1.430421038324e-02 -9.513445510628e+02 -2.139459142676e-02 2.141465666299e-03 3.847564057032e+02 1.715800259272e+02 
3 2.500000000000e-04 5.000000000000e-05 1.000000000000e-08 2.979392234740e+22 3.405390437718e-02 -9.279279702553e+02 -1.200670080767e+00 1.975337051632e-03 4.173293286495e+02 1.716682068985e+02 
4 3.500000000000e-04 5.000000000000e-05 1.000000000000e-08 2.771810305401e+22 4.857809573119e-02 -9.058557847833e+02 -1.741892204447e+00 1.837710232481e-03 4.484359180260e+02 1.716118126042e+02 
5 4.500000000000e-04 5.000000000000e-05 1.000000000000e-08 2.603936735006e+22 -2.473364469342e-02 -8.845200241363e+02 -1.894014803303e+00 1.726410055309e-03 4.779954263151e+02 1.718452183383e+02 
6 5.500000000000e-04 5.000000000000e-05 1.000000000000e-08 2.460890548338e+22 -3.778432846941e-02 -8.631032322477e+02 -8.787414334298e-01 1.631570433548e-03 5.058719498177e+02 1.718763727146e+02 
7 6.500000000000e-04 5.000000000000e-05 1.000000000000e-08 2.340032301544e+22 2.036177089171e-02 -8.407676736158e+02 -1.964808693985e+00 1.551441415924e-03 5.326096783702e+02 1.720735779252e+02 
8 7.500000000000e-04 5.000000000000e-05 1.000000000000e-08 2.228069627120e+22 -1.517659846864e-02 -8.187842183176e+02 -1.616329711724e+00 1.477210162780e-03 5.580759558324e+02 1.716743267230e+02 
9 8.500000000000e-04 5.000000000000e-05 1.000000000000e-08 2.139404079291e+22 5.119374172774e-02 -7.967850412455e+02 -1.018819616016e+00 1.418424904570e-03 5.807553454994e+02 1.715415453480e+02 
10 9.500000000000e-04 5.000000000000e-05 1.000000000000e-08 2.057886740484e+22 1.507061777342e-02 -7.755425748764e+02 -6.821787958058e-03 1.364378908941e-03 6.039754848970e+02 1.716026786516e+02 
11 1.050000000000e-03 5.000000000000e-05 1.000000000000e-08 1.984083769041e+22 -3.449640461107e-02 -7.542171989310e+02 -1.810372359686e-01 1.315447538874e-03 6.264868521595e+02 1.716150013499e+02 
12 1.150000000000e-03 5.000000000000e-05 1.000000000000e-08 1.916352937796e+22 8.835193447577e-03 -7.329769736267e+02 -8.060849502468e-01 1.270541997759e-03 6.487952272055e+02 1.716589397858e+02 
13 1.250000000000e-03 5.000000000000e-05 1.000000000000e-08 1.862990017199e+22 5.416147648171e-02 -7.122838050136e+02 -1.193966401558e+00 1.235162381403e-03 6.678199335207e+02 1.717723227894e+02 
14 1.350000000000e-03 5.000000000000e-05 1.000000000000e-08 1.805341745819e+22 2.982908100510e-03 -6.915446203371e+02 -3.967946074432e-01 1.196941577478e-03 6.886372333754e+02 1.716458105670e+02 
15 1.450000000000e-03 5.000000000000e-05 1.000000000000e-08 1.762109747732e+22 4.686052039676e-02 -6.696505965248e+02 -6.843630516551e-01 1.168278762746e-03 7.059670345769e+02 1.717515473038e+02 
16 1.550000000000e-03 5.000000000000e-05 1.000000000000e-08 1.715807773126e+22 -2.088778546745e-02 -6.494607954717e+02 -3.022431378562e-01 1.137580553583e-03 7.249937084634e+02 1.717458103266e+02 
17 1.650000000000e-03 5.000000000000e-05 1.000000000000e-08 1.680549303091e+22 -2.718771552882e-02 -6.291771048697e+02 9.875712953464e-01 1.114204187949e-03 7.406607492350e+02 1.718517151488e+02 
18 1.750000000000e-03 5.000000000000e-05 1.000000000000e-08 1.643710636238e+22 8.515703115659e-04 -6.089226562751e+02 2.734141270408e+00 1.089780151826e-03 7.565332134060e+02 1.716866977145e+02 
19 1.850000000000e-03 5.000000000000e-05 1.000000000000e-08 1.607657862346e+22 -4.791770173925e-02 -5.879218677812e+02 1.578683285504e+00 1.065877162736e-03 7.736965705999e+02 1.717305588972e+02 
20 1.950000000000e-03 5.000000000000e-05 1.000000000000e-08 1.576507588627e+22 7.762538023197e-02 -5.684577592250e+02 2.398736668945e+00 1.045224531260e-03 7.906313086150e+02 1.720890972947e+02 
21 2.050000000000e-03 5.000000000000e-05 1.000000000000e-08 1.550640933740e+22 6.598965234771e-02 -5.488105265900e+02 2.076388369566e+00 1.028074939070e-03 8.029453326160e+02 1.719018319283e+02 
22 2.150000000000e-03 5.000000000000e-05 1.000000000000e-08 1.523003785546e+22 -1.577005871571e-01 -5.287952147782e+02 1.513498791739e+00 1.009751509817e-03 8.184386637919e+02 1.720958521690e+02 
23 2.250000000000e-03 5.000000000000e-05 1.000000000000e-08 1.493318058844e+22 5.421553919014e-02 -5.075793611658e+02 1.633197944347e+00 9.900698730136e-04 8.332856645870e+02 1.718025122908e+02 
24 2.350000000000e-03 5.000000000000e-05 1.000000000000e-08 1.471310427522e+22 1.304640879011e-03 -4.906695216701e+02 2.103651013053e+00 9.754788134470e-04 8.437633443990e+02 1.713989866762e+02 
25 2.450000000000e-03 5.000000000000e-05 1.000000000000e-08 1.447821953074e+22 5.811033558014e-02 -4.709257660156e+02 1.546405744863e+00 9.599059548884e-04 8.575124397857e+02 1.714110712734e+02 
26 2.550000000000e-03 5.000000000000e-05 1.000000000000e-08 1.434112720607e+22 -7.562170641879e-02 -4.514691217256e+02 1.658275066177e+00 9.508167337624e-04 8.684255499128e+02 1.719488054345e+02 
27 2.650000000000e-03 5.000000000000e-05 1.000000000000e-08 1.416316844740e+22 3.190926327513e-02 -4.337198939412e+02 2.345355086759e+00 9.390180680629e-04 8.808734361211e+02 1.722492011944e+02 
28 2.750000000000e-03 5.000000000000e-05 1.000000000000e-08 1.401856939933e+22 -1.187141020407e-01 -4.142033826989e+02 2.564123928962e+00 9.294311511753e-04 8.904835463013e+02 1.723506310724e+02 
29 2.850000000000e-03 5.000000000000e-05 1.000000000000e-08 1.383372947754e+22 -2.682529811605e-02 -3.958586033366e+02 3.008839798001e+00 9.171762643610e-04 9.019368888084e+02 1.722656594827e+02 
30 2.950000000000e-03 5.000000000000e-05 1.000000000000e-08 1.371083053745e+22 -5.818494923183e-02 -3.788927527427e+02 3.233408644398e+00 9.090280646331e-04 9.104464163566e+02 1.723460906054e+02 
31 3.050000000000e-03 5.000000000000e-05 1.000000000000e-08 1.354033644772e+22 3.265362830098e-02 -3.594687648303e+02 1.538340716030e+00 8.977243064838e-04 9.196560066923e+02 1.719246505174e+02 
32 3.150000000000e-03 5.000000000000e-05 1.000000000000e-08 1.342843475228e+22 -5.988453582737e-02 -3.402147863696e+02 3.964270870162e+00 8.903052240762e-04 9.261028182568e+02 1.716990458725e+02 
33 3.250000000000e-03 5.000000000000e-05 1.000000000000e-08 1.331185449674e+22 -1.235989763509e-01 -3.189815338432e+02 3.802147591869e+00 8.825759531336e-04 9.330602349475e+02 1.714871275094e+02 
34 3.350000000000e-03 5.000000000000e-05 1.000000000000e-08 1.321491893682e+22 -2.176134865377e-02 -3.024808782636e+02 4.074964271704e+00 8.761491255113e-04 9.403223558001e+02 1.715633617293e+02 
35 3.450000000000e-03 5.000000000000e-05 1.000000000000e-08 1.313404292873e+22 -3.614793096005e-02 -2.831563418910e+02 2.329557284754e+00 8.707870461746e-04 9.473945580132e+02 1.717958228303e+02 
36 3.550000000000e-03 5.000000000000e-05 1.000000000000e-08 1.301042906260e+22 -5.194806787823e-02 -2.648992356368e+02 2.374283485614e+00 8.625914468503e-04 9.551704807497e+02 1.715757057821e+02 
37 3.650000000000e-03 5.000000000000e-05 1.000000000000e-08 1.289478451908e+22 -7.508709457367e-02 -2.481223612888e+02 3.446174821770e+00 8.549242136148e-04 9.650233983960e+02 1.718047691983e+02 
38 3.750000000000e-03 5.000000000000e-05 1.000000000000e-08 1.281455509850e+22 3.070869562673e-02 -2.303660239341e+02 3.260318993936e+00 8.496050030306e-04 9.705482180074e+02 1.717132989547e+02 
39 3.850000000000e-03 5.000000000000e-05 1.000000000000e-08 1.272642995065e+22 -5.581344776671e-02 -2.123084455008e+02 3.015788620400e+00 8.437623057280e-04 9.770713613915e+02 1.716785980282e+02 
40 3.950000000000e-03 5.000000000000e-05 1.000000000000e-08 1.266192890292e+22 -9.507346656133e-03 -1.950819075806e+02 2.482418055025e+00 8.394858862635e-04 9.801530779911e+02 1.713472194870e+02 
41 4.050000000000e-03 5.000000000000e-05 1.000000000000e-08 1.258141035784e+22 -9.517791964826e-02 -1.758189153270e+02 3.128848568878e+00 8.341475067249e-04 9.858044575355e+02 1.712392779368e+02 
42 4.150000000000e-03 5.000000000000e-05 1.000000000000e-08 1.257123317541e+22 1.016686908003e-01 -1.568163343548e+02 2.386492462983e+00 8.334727595299e-04 9.896423818688e+02 1.717668892230e+02 
43 4.250000000000e-03 5.000000000000e-05 1.000000000000e-08 1.253207520438e+22 -1.015989878918e-01 -1.389639066860e+02 4.543918479935e+00 8.308765860505e-04 9.910688035836e+02 1.714786599189e+02 
44 4.350000000000e-03 5.000000000000e-05 1.000000000000e-08 1.251997928663e+22 -8.380262709348e-02 -1.185872303918e+02 4.420937664572e+00 8.300746267035e-04 9.912764585671e+02 1.713490438916e+02 
45 4.450000000000e-03 5.000000000000e-05 1.000000000000e-08 1.245697117269e+22 -9.346995058548e-02 -9.973741311460e+01 4.676645360581e+00 8.258971887490e-04 9.967792251583e+02 1.714331163689e+02 
46 4.550000000000e-03 5.000000000000e-05 1.000000000000e-08 1.245872694693e+22 6.242887673680e-02 -8.188018818064e+01 3.498246961730e+00 8.260135965812e-04 9.974787818753e+02 1.715776110260e+02 
47 4.650000000000e-03 5.000000000000e-05 1.000000000000e-08 1.246065093906e+22 -1.846612087546e-02 -6.422468927472e+01 2.522412337490e+00 8.261411572596e-04 9.981448670825e+02 1.717186995002e+02 
48 4.750000000000e-03 5.000000000000e-05 1.000000000000e-08 1.244174219671e+22 -4.971071854060e-02 -4.552648372358e+01 3.945431085978e+00 8.248875076416e-04 9.998302146569e+02 1.717476240403e+02 
49 4.850000000000e-03 5.000000000000e-05 1.000000000000e-08 1.241786576975e+22 -4.307248559571e-02 -2.769570959973e+01 2.653079707762e+00 8.233045005341e-04 9.999983233224e+02 1.714468521098e+02 
50 4.950000000000e-03 5.000000000000e-05 1.000000000000e-08 1.242660784329e+22 -5.620834617991e-02 -1.006255359503e+01 1.922257236914e+00 8.238841000100e-04 1.000989896886e+03 1.717376713898e+02 
51 5.050000000000e-03 5.000000000000e-05 1.000000000000e-08 1.240645323718e+22 2.675154121752e-02 7.657563627038e+00 1.566274877051e+00 8.225478496248e-04 1.002748063062e+03 1.717602871017e+02 
52 5.150000000000e-03 5.000000000000e-05 1.000000000000e-08 1.240535456407e+22 2.240267325773e-02 2.571553236946e+01 1.295147756021e-01 8.224750075981e-04 1.002688924476e+03 1.717349476716e+02 
53 5.250000000000e-03 5.000000000000e-05 1.000000000000e-08 1.241646220172e+22 1.139372052317e-01 4.274521617047e+01 -3.051422672818e-01 8.232114439737e-04 1.000206435626e+03 1.714631500206e+02 
54 5.350000000000e-03 5.000000000000e-05 1.000000000000e-08 1.245257122346e+22 -1.460683679852e-01 6.236509753065e+01 -1.003292307502e+00 8.256054721156e-04 9.982605209183e+02 1.716272378685e+02 
55 5.450000000000e-03 5.000000000000e-05 1.000000000000e-08 1.247180063117e+22 4.259066743001e-02 8.130010571554e+01 1.005780938956e-01 8.268803818468e-04 9.956097867680e+02 1.714358320183e+02 
56 5.550000000000e-03 5.000000000000e-05 1.000000000000e-08 1.252368533705e+22 1.058842750973e-02 9.956380182157e+01 7.115027374297e-02 8.303203378464e-04 9.942723057882e+02 1.719177714373e+02 
57 5.650000000000e-03 5.000000000000e-05 1.000000000000e-08 1.255754444450e+22 -2.907434511398e-02 1.183008661523e+02 1.251018329330e-01 8.325651966704e-04 9.895103404022e+02 1.715569606473e+02 
58 5.750000000000e-03 5.000000000000e-05 1.000000000000e-08 1.259062554421e+22 9.257338925789e-02 1.358388026969e+02 1.219156695541e-01 8.347584735808e-04 9.854834060541e+02 1.713088920931e+02 
59 5.850000000000e-03 5.000000000000e-05 1.000000000000e-08 1.261575309173e+22 -1.385697309403e-01 1.528026873208e+02 -3.932061722491e-01 8.364244299818e-04 9.832513640508e+02 1.712620037387e+02 
60 5.950000000000e-03 5.000000000000e-05 1.000000000000e-08 1.265445372037e+22 5.872532866990e-02 1.726125716816e+02 1.019024071875e-02 8.389902816605e-04 9.813058487866e+02 1.714474664987e+02 
61 6.050000000000e-03 5.000000000000e-05 1.000000000000e-08 1.274479724167e+22 -7.414746984493e-02 1.941483993537e+02 -1.719672033020e+00 8.449800571224e-04 9.753585033255e+02 1.716249753508e+02 
62 6.150000000000e-03 5.000000000000e-05 1.000000000000e-08 1.279201915786e+22 -1.163414803168e-01 2.121094430268e+02 -2.019252291949e+00 8.481108701664e-04 9.712600907597e+02 1.715370463093e+02 
63 6.250000000000e-03 5.000000000000e-05 1.000000000000e-08 1.291565930804e+22 -7.271367868450e-03 2.278173440238e+02 -2.235756076449e+00 8.563082121228e-04 9.650310207083e+02 1.720842554523e+02 
64 6.350000000000e-03 5.000000000000e-05 1.000000000000e-08 1.292691939314e+22 2.313267091845e-02 2.456869736856e+02 -1.753487384460e+00 8.570547557653e-04 9.608612213980e+02 1.714900748181e+02 
65 6.450000000000e-03 5.000000000000e-05 1.000000000000e-08 1.306111521600e+22 2.466794170919e-02 2.645194446789e+02 -1.610093494727e+00 8.659519388207e-04 9.535204612530e+02 1.719465870758e+02 
66 6.550000000000e-03 5.000000000000e-05 1.000000000000e-08 1.316331284183e+22 3.533098037074e-03 2.811268804058e+02 -2.035192353499e+00 8.727276414132e-04 9.456841225774e+02 1.718678258799e+02 
67 6.650000000000e-03 5.000000000000e-05 1.000000000000e-08 1.325152209863e+22 -1.437338538220e-01 2.999075731337e+02 -9.306362510465e-01 8.785759151390e-04 9.367605079509e+02 1.713868991285e+02 
68 6.750000000000e-03 5.000000000000e-05 1.000000000000e-08 1.338992336877e+22 -4.167356822547e-02 3.202051420605e+02 -2.013775032249e+00 8.877519193494e-04 9.290392999881e+02 1.717494915362e+02 
69 6.850000000000e-03 5.000000000000e-05 1.000000000000e-08 1.352220571311e+22 9.179135715977e-03 3.368294331448e+02 -1.470573050810e+00 8.965222387793e-04 9.193398362210e+02 1.716354133723e+02 
70 6.950000000000e-03 5.000000000000e-05 1.000000000000e-08 1.365258509256e+22 -4.902699771946e-02 3.554649458427e+02 -1.873895033449e+00 9.051663916367e-04 9.113098209098e+02 1.717766881434e+02 
71 7.050000000000e-03 5.000000000000e-05 1.000000000000e-08 1.375297437606e+22 1.235515395177e-02 3.739108412427e+02 -1.348226260370e+00 9.118222011325e-04 9.040926652178e+02 1.716693893864e+02 
72 7.150000000000e-03 5.000000000000e-05 1.000000000000e-08 1.389462435423e+22 -5.645060146728e-02 3.939158997551e+02 -1.183917600299e+00 9.212135946852e-04 8.929624247187e+02 1.713023327436e+02 
73 7.250000000000e-03 5.000000000000e-05 1.000000000000e-08 1.407010189899e+22 -1.316739763442e-02 4.122513544203e+02 -1.318490740517e+00 9.328477559032e-04 8.832983091208e+02 1.715883999392e+02 
74 7.350000000000e-03 5.000000000000e-05 1.000000000000e-08 1.423085512145e+22 -5.754447930330e-02 4.301566579498e+02 -2.387432084022e-01 9.435056945523e-04 8.729923350827e+02 1.715239267534e+02 
75 7.450000000000e-03 5.000000000000e-05 1.000000000000e-08 1.441767160346e+22 6.866944276996e-02 4.495205413422e+02 -1.694302132953e+00 9.558916273095e-04 8.629702960006e+02 1.717806568966e+02 
76 7.550000000000e-03 5.000000000000e-05 1.000000000000e-08 1.464826679170e+22 -7.174570663292e-02 4.686590199843e+02 -8.842920673702e-01 9.711800882900e-04 8.498961002770e+02 1.718839638311e+02 
77 7.650000000000e-03 5.000000000000e-05 1.000000000000e-08 1.480776889360e+22 6.130965789532e-02 4.868786446798e+02 -3.159199438314e-02 9.817550776456e-04 8.388864113276e+02 1.715047172898e+02 
78 7.750000000000e-03 5.000000000000e-05 1.000000000000e-08 1.503570413643e+22 -5.761089230038e-02 5.065658910465e+02 -6.009791626691e-01 9.968671842456e-04 8.276182440298e+02 1.718055185727e+02 
79 7.850000000000e-03 5.000000000000e-05 1.000000000000e-08 1.531386819028e+22 -2.337468238767e-02 5.269932796991e+02 -1.630250280626e+00 1.015309461015e-03 8.123925643766e+02 1.717647838283e+02 
80 7.950000000000e-03 5.000000000000e-05 1.000000000000e-08 1.559507593659e+22 -9.708209598591e-02 5.480447890374e+02 -5.121933425385e-01 1.033953534596e-03 7.962151523684e+02 1.714356800922e+02 
81 8.050000000000e-03 5.000000000000e-05 1.000000000000e-08 1.588001601737e+22 2.991662120403e-02 5.665982245852e+02 -4.796267928280e-01 1.052845061952e-03 7.821320603720e+02 1.714803286704e+02 
82 8.150000000000e-03 5.000000000000e-05 1.000000000000e-08 1.620474488628e+22 3.113050853387e-02 5.870144459237e+02 1.047196040861e-01 1.074374585960e-03 7.679447593096e+02 1.718127788013e+02 
83 8.250000000000e-03 5.000000000000e-05 1.000000000000e-08 1.649995677205e+22 -5.156306587380e-02 6.070398226776e+02 1.738407877992e-01 1.093947133987e-03 7.532669867976e+02 1.715991069196e+02 
84 8.350000000000e-03 5.000000000000e-05 1.000000000000e-08 1.686968392690e+22 -7.629887103119e-03 6.272894743311e+02 1.166484265803e+00 1.118460044354e-03 7.369031840262e+02 1.716329477211e+02 
85 8.450000000000e-03 5.000000000000e-05 1.000000000000e-08 1.725373062976e+22 2.896627789279e-02 6.475307787394e+02 3.870683812628e-01 1.143922340753e-03 7.187157828458e+02 1.712077729588e+02 
86 8.550000000000e-03 5.000000000000e-05 1.000000000000e-08 1.770362938028e+22 -8.816510991799e-02 6.685262817359e+02 -1.551379357444e-01 1.173750627913e-03 7.022203899389e+02 1.716402061727e+02 
87 8.650000000000e-03 5.000000000000e-05 1.000000000000e-08 1.810726295387e+22 -2.541575452852e-02 6.888348569736e+02 3.112772748829e-02 1.200511533841e-03 6.853470168997e+02 1.713352086988e+02 
88 8.750000000000e-03 5.000000000000e-05 1.000000000000e-08 1.862498505548e+22 9.583877372150e-02 7.081781308268e+02 6.560038228735e-01 1.234836509178e-03 6.663816440451e+02 1.713571542794e+02 
89 8.850000000000e-03 5.000000000000e-05 1.000000000000e-08 1.923589986892e+22 -9.621686937583e-02 7.293675163293e+02 -8.976785852124e-02 1.275340161310e-03 6.458873102482e+02 1.715349192576e+02 
90 8.950000000000e-03 5.000000000000e-05 1.000000000000e-08 1.988474256006e+22 -4.538517922365e-03 7.506814855451e+02 -1.290006330032e-01 1.318358431732e-03 6.245747375656e+02 1.714698111570e+02 
91 9.050000000000e-03 5.000000000000e-05 1.000000000000e-08 2.059219341593e+22 3.062899698161e-02 7.715440767394e+02 2.312457984195e-01 1.365262423476e-03 6.029688420241e+02 1.714276068257e+02 
92 9.150000000000e-03 5.000000000000e-05 1.000000000000e-08 2.140029113894e+22 -1.065976403227e-01 7.925831619728e+02 -1.065846416460e-01 1.418839302511e-03 5.802185521794e+02 1.714330593139e+02 
93 9.250000000000e-03 5.000000000000e-05 1.000000000000e-08 2.236097825986e+22 5.207995539194e-02 8.146589047438e+02 1.603819714143e-01 1.482532858629e-03 5.554045256955e+02 1.714681634697e+02 
94 9.350000000000e-03 5.000000000000e-05 1.000000000000e-08 2.342286946970e+22 -2.245340144718e-02 8.368043183916e+02 1.716525812187e-01 1.552936245841e-03 5.304498133517e+02 1.715408990116e+02 
95 9.450000000000e-03 5.000000000000e-05 1.000000000000e-08 2.471838378982e+22 -1.178621149486e-03 8.606437433598e+02 5.775363295068e-01 1.638828845265e-03 5.043230742928e+02 1.721124126741e+02 
96 9.550000000000e-03 5.000000000000e-05 1.000000000000e-08 2.609665605570e+22 7.526602239894e-04 8.828091089730e+02 5.688099290898e-01 1.730208296493e-03 4.769840158394e+02 1.718588772088e+02 
97 9.650000000000e-03 5.000000000000e-05 1.000000000000e-08 2.778767692253e+22 -1.468823276428e-02 9.046621458366e+02 2.101579763337e-01 1.842322979964e-03 4.476919383583e+02 1.717571390960e+02 
98 9.750000000000e-03 5.000000000000e-05 1.000000000000e-08 2.981692088724e+22 -1.472471425199e-02 9.278651091170e+02 9.300124824074e-01 1.976861854824e-03 4.171798808519e+02 1.717391983795e+02 
99 9.850000000000e-03 5.000000000000e-05 1.000000000000e-08 3.228880920591e+22 -2.003658752267e-02 9.515312515128e+02 1.545004965975e+00 2.140748050351e-03 3.844506474414e+02 1.713862230535e+02 
100 9.950000000000e-03 5.000000000000e-05 1.000000000000e-08 3.548309874554e+22 6.819505268713e-03 9.747044286775e+02 9.580375869378e-01 2.352529446829e-03 3.491944674659e+02 1.710693387892e+02 
